ITEM: TIMESTEP
0
ITEM: NUMBER OF ATOMS
151
ITEM: BOX BOUNDS pp pp pp
-3.0000000000000000e+02 3.0000000000000000e+02
-3.0000000000000000e+02 3.0000000000000000e+02
-3.0000000000000000e+02 3.0000000000000000e+02
ITEM: ATOMS id type xs ys zs ix iy iz q
1 1 0.5142 0.500045 0.499342 0 0 0 -0.24978
2 2 0.515243 0.501678 0.499938 0 0 0 0.0194787
3 3 0.517683 0.501967 0.49926 0 0 0 0.00983205
5 3 0.517858 0.502748 0.496822 0 0 0 0.0196507
6 5 0.516493 0.502053 0.495835 0 0 0 0.0789063
7 5 0.51782 0.504563 0.49668 0 0 0 0.076338
8 3 0.520068 0.50176 0.496015 0 0 0 0.0261197
9 5 0.520085 0.501475 0.494217 0 0 0 0.0765454
10 5 0.521437 0.50288 0.49645 0 0 0 0.074208
11 3 0.520277 0.499587 0.497343 0 0 0 0.0179323
12 4 0.519528 0.498195 0.496433 0 0 0 0.0738509
13 4 0.522033 0.499228 0.497673 0 0 0 0.0693815
14 6 0.519045 0.499927 0.499435 0 0 0 -0.123975
17 4 0.520922 0.496088 0.499462 0 0 0 0.0627184
30 10 0.529978 0.49585 0.499723 0 0 0 0.0629949
31 10 0.53245 0.494768 0.499662 0 0 0 0.0658726
51 2 0.510333 0.503118 0.499618 0 0 0 0.0200422
54 3 0.506593 0.50182 0.498377 0 0 0 0.0122415
55 4 0.506553 0.503222 0.497212 0 0 0 0.0717771
56 4 0.506973 0.500292 0.497463 0 0 0 0.0729861
57 2 0.504278 0.501578 0.499365 0 0 0 0.0205359
58 6 0.502607 0.501705 0.497858 0 0 0 -0.12077
59 10 0.503 0.50184 0.49623 0 0 0 0.0725991
60 3 0.500215 0.501872 0.498402 0 0 0 0.00987888
61 4 0.499913 0.501027 0.49999 0 0 0 0.0699399
62 3 0.499453 0.504328 0.498605 0 0 0 0.0190433
63 5 0.499662 0.505157 0.496995 0 0 0 0.0735308
64 5 0.497673 0.50438 0.498987 0 0 0 0.0719396
66 13 0.502528 0.506952 0.49983 0 0 0 0.0303753
67 14 0.503048 0.5071 0.4981 0 0 0 0.0742382
76 2 0.498812 0.500672 0.496662 0 0 0 0.020313
77 6 0.496708 0.50015 0.497288 0 0 0 -0.130636
78 10 0.496187 0.500572 0.49883 0 0 0 0.0713432
79 3 0.49524 0.498633 0.496035 0 0 0 0.00991896
80 4 0.49561 0.498848 0.494265 0 0 0 0.0681931
81 3 0.495762 0.4962 0.496697 0 0 0 0.0165184
82 4 0.494735 0.495045 0.495742 0 0 0 0.0763223
83 4 0.49751 0.495832 0.49634 0 0 0 0.0781978
84 15 0.49535 0.495862 0.499015 0 0 0 -0.236098
85 16 0.494852 0.494332 0.499197 0 0 0 0.0778002
86 2 0.49276 0.499175 0.496347 0 0 0 0.0167398
87 6 0.491275 0.49836 0.494823 0 0 0 -0.118421
88 3 0.491828 0.497012 0.492843 0 0 0 0.028766
89 4 0.49324 0.497703 0.491925 0 0 0 0.0783262
90 4 0.492197 0.495307 0.493368 0 0 0 0.0803068
91 3 0.489745 0.496987 0.491363 0 0 0 0.0338921
92 5 0.489798 0.498393 0.49021 0 0 0 0.0828227
93 5 0.489597 0.495442 0.49041 0 0 0 0.0837492
94 3 0.487832 0.497295 0.49302 0 0 0 0.0243973
95 5 0.486372 0.498062 0.49225 0 0 0 0.0794995
96 5 0.487357 0.495672 0.493698 0 0 0 0.0812278
97 3 0.488843 0.498768 0.49486 0 0 0 0.0197148
98 4 0.4886 0.500517 0.4944 0 0 0 0.0660202
99 2 0.487657 0.498388 0.497077 0 0 0 0.0199466
100 6 0.486268 0.500053 0.497685 0 0 0 -0.127118
101 10 0.48619 0.50141 0.496698 0 0 0 0.0652007
102 3 0.48492 0.500128 0.499732 0 0 0 0.00820441
104 2 0.483167 0.4983 0.49985 0 0 0 0.0179009
130 1 0.481577 0.498228 0.498593 0 0 0 -0.250919
131 3 0.483742 0.502402 0.499997 0 0 0 0.0129187
132 5 0.482525 0.502615 0.498657 0 0 0 0.0722247
134 13 0.48535 0.504357 0.499988 0 0 0 0.0245722
135 13 0.485693 0.505583 0.49804 0 0 0 0.0266061
136 14 0.484817 0.505143 0.496515 0 0 0 0.0709738
137 13 0.48716 0.507383 0.498037 0 0 0 0.0199895
138 14 0.487423 0.508335 0.496517 0 0 0 0.0711327
139 13 0.48829 0.507963 0.49998 0 0 0 0.0200635
140 14 0.489433 0.50937 0.499978 0 0 0 0.0727456
145 1 0.487867 0.496697 0.498172 0 0 0 -0.245379
146 1 0.492135 0.500388 0.497845 0 0 0 -0.249529
147 1 0.499535 0.500158 0.494838 0 0 0 -0.247181
149 1 0.510808 0.503822 0.497777 0 0 0 -0.249962
150 10 0.471932 0.499053 0.499005 0 0 0 0.0706884
4 4 0.51848 0.503205 0.500327 0 0 0 0.0633991
15 2 0.519097 0.498582 0.501263 0 0 0 0.0204443
16 3 0.520577 0.496518 0.501195 0 0 0 0.0135567
18 3 0.522785 0.497022 0.502418 0 0 0 0.0158908
19 5 0.523383 0.498663 0.501907 0 0 0 0.0733064
20 5 0.522488 0.497097 0.504215 0 0 0 0.0741259
21 3 0.524613 0.495292 0.501898 0 0 0 0.0203811
22 5 0.524055 0.49362 0.502357 0 0 0 0.0743768
23 5 0.524947 0.495295 0.500107 0 0 0 0.0731958
24 3 0.526757 0.49587 0.503188 0 0 0 0.0149107
25 4 0.527208 0.497613 0.502898 0 0 0 0.0707057
26 4 0.526488 0.495622 0.504975 0 0 0 0.0717228
27 7 0.528617 0.49442 0.502428 0 0 0 -0.113682
28 8 0.530245 0.493753 0.501895 0 0 0 0.0183375
29 9 0.530955 0.494677 0.500472 0 0 0 -0.120181
32 11 0.530313 0.492365 0.5031 0 0 0 -0.119635
33 10 0.529553 0.491052 0.502283 0 0 0 0.0665951
34 10 0.53201 0.492075 0.50307 0 0 0 0.0688493
35 12 0.519437 0.4946 0.502223 0 0 0 -0.122934
36 10 0.520457 0.493248 0.502287 0 0 0 0.07062
37 10 0.518973 0.494983 0.503812 0 0 0 0.0748087
38 1 0.518237 0.499158 0.503005 0 0 0 -0.250963
39 6 0.514253 0.503323 0.501152 0 0 0 -0.125015
40 3 0.515368 0.505293 0.50209 0 0 0 0.0168867
41 4 0.516868 0.504823 0.503015 0 0 0 0.0723541
42 4 0.515798 0.506432 0.500732 0 0 0 0.0699716
43 3 0.513688 0.5064 0.503667 0 0 0 0.023218
44 5 0.513887 0.505718 0.505345 0 0 0 0.0728259
45 5 0.513898 0.508208 0.503737 0 0 0 0.074596
46 3 0.511418 0.50572 0.502723 0 0 0 0.0176234
47 5 0.510135 0.505638 0.504012 0 0 0 0.0755714
48 5 0.510907 0.506933 0.501463 0 0 0 0.0766068
49 3 0.51184 0.503433 0.501635 0 0 0 0.0125635
50 4 0.511457 0.502112 0.502833 0 0 0 0.0653956
52 6 0.508322 0.502212 0.500063 0 0 0 -0.126596
53 10 0.507957 0.50175 0.501638 0 0 0 0.0728967
65 13 0.50071 0.505612 0.500397 0 0 0 0.0312821
68 13 0.503705 0.508088 0.501478 0 0 0 0.0268399
69 14 0.505125 0.509122 0.50103 0 0 0 0.078146
70 13 0.503065 0.5079 0.503703 0 0 0 0.0290518
71 14 0.503982 0.508787 0.50499 0 0 0 0.0783745
72 13 0.50125 0.50657 0.504277 0 0 0 0.0281375
73 14 0.500753 0.506417 0.506012 0 0 0 0.0763059
74 13 0.500078 0.505427 0.502628 0 0 0 0.0325363
75 14 0.498673 0.50438 0.503093 0 0 0 0.0748979
103 4 0.486057 0.499897 0.50114 0 0 0 0.0679525
105 6 0.48334 0.496918 0.501617 0 0 0 -0.127036
106 10 0.484707 0.497025 0.502595 0 0 0 0.0708033
107 3 0.481718 0.495177 0.502198 0 0 0 0.0162215
108 4 0.480877 0.49463 0.500677 0 0 0 0.0708297
109 2 0.482912 0.493145 0.503097 0 0 0 0.0203349
110 1 0.484402 0.493222 0.504462 0 0 0 -0.24537
111 15 0.481885 0.491298 0.502597 0 0 0 -0.242946
112 16 0.482713 0.490113 0.503327 0 0 0 0.0716918
113 3 0.479945 0.495962 0.503912 0 0 0 0.025345
114 5 0.479158 0.494492 0.504648 0 0 0 0.0854798
115 5 0.480743 0.496872 0.505272 0 0 0 0.0831289
116 3 0.478103 0.497395 0.502823 0 0 0 0.034424
117 5 0.4788 0.498975 0.502248 0 0 0 0.0810466
118 5 0.47746 0.496508 0.501368 0 0 0 0.0834598
119 3 0.476165 0.497852 0.504455 0 0 0 0.022967
120 4 0.475673 0.49631 0.505295 0 0 0 0.0781508
121 4 0.476687 0.499062 0.505717 0 0 0 0.0756688
122 7 0.474215 0.498742 0.503208 0 0 0 -0.107635
123 8 0.472752 0.499113 0.502153 0 0 0 0.0255577
124 11 0.471802 0.4986 0.500667 0 0 0 -0.11352
125 10 0.47259 0.497077 0.500813 0 0 0 0.0692259
126 10 0.470127 0.498317 0.50096 0 0 0 0.0716703
127 9 0.471925 0.50061 0.502828 0 0 0 -0.116168
128 10 0.473093 0.501798 0.503167 0 0 0 0.067155
129 10 0.470487 0.501182 0.503535 0 0 0 0.0673405
133 5 0.482802 0.502407 0.501557 0 0 0 0.0720245
141 13 0.487957 0.506742 0.501927 0 0 0 0.0203941
142 14 0.48884 0.507193 0.503442 0 0 0 0.0718029
143 13 0.48649 0.50494 0.50193 0 0 0 0.0249501
144 14 0.486242 0.503993 0.503457 0 0 0 0.0709024
148 1 0.503938 0.501395 0.501353 0 0 0 -0.245811
151 10 0.52983 0.492267 0.504753 0 0 0 0.0672285
ITEM: TIMESTEP
1000000
ITEM: NUMBER OF ATOMS
151
ITEM: BOX BOUNDS pp pp pp
-3.0000000000000000e+02 3.0000000000000000e+02
-3.0000000000000000e+02 3.0000000000000000e+02
-3.0000000000000000e+02 3.0000000000000000e+02
ITEM: ATOMS id type xs ys zs ix iy iz q
49 3 0.508897 0.496875 0.494823 0 0 0 0.0156924
43 3 0.508678 0.498629 0.491138 0 0 0 0.0296151
67 14 0.499119 0.496852 0.497365 0 0 0 0.0763083
128 10 0.477561 0.511379 0.49804 0 0 0 0.0719625
52 6 0.505734 0.497306 0.497209 0 0 0 -0.127922
18 3 0.521109 0.493033 0.494838 0 0 0 0.0173932
70 13 0.493511 0.495919 0.497023 0 0 0 0.0298177
125 10 0.479359 0.506221 0.495483 0 0 0 0.0737532
39 6 0.510055 0.495325 0.493287 0 0 0 -0.123721
36 10 0.517891 0.49292 0.497678 0 0 0 0.0730786
3 3 0.513124 0.492808 0.492208 0 0 0 0.0112166
74 13 0.494159 0.49941 0.498737 0 0 0 0.0320217
66 13 0.497314 0.497105 0.497603 0 0 0 0.0341006
122 7 0.481841 0.507851 0.498374 0 0 0 -0.108212
11 3 0.51449 0.489629 0.494291 0 0 0 0.0239025
35 12 0.518223 0.491263 0.497097 0 0 0 -0.123232
33 10 0.528099 0.497167 0.497537 0 0 0 0.0718726
17 4 0.51938 0.490032 0.494114 0 0 0 0.0642465
8 3 0.512121 0.489006 0.493299 0 0 0 0.0304258
40 3 0.509707 0.496161 0.491032 0 0 0 0.0205242
148 1 0.503392 0.500701 0.498896 0 0 0 -0.246604
64 5 0.499238 0.50153 0.498163 0 0 0 0.0800662
69 14 0.496443 0.493938 0.495931 0 0 0 0.0780257
22 5 0.523397 0.491196 0.493107 0 0 0 0.0753009
28 8 0.526255 0.497309 0.494494 0 0 0 0.0226975
50 4 0.509714 0.496903 0.496303 0 0 0 0.0696874
129 10 0.479967 0.511858 0.499535 0 0 0 0.0701776
5 3 0.511512 0.490943 0.491705 0 0 0 0.0179583
4 4 0.513617 0.493579 0.490575 0 0 0 0.0660629
53 10 0.506733 0.49862 0.497898 0 0 0 0.0717811
73 14 0.490892 0.498328 0.49798 0 0 0 0.0787162
29 9 0.526596 0.49858 0.492489 0 0 0 -0.116138
34 10 0.528503 0.499502 0.496091 0 0 0 0.0733669
6 5 0.509769 0.491446 0.491866 0 0 0 0.0770748
19 5 0.520704 0.494825 0.495054 0 0 0 0.0770167
30 10 0.526505 0.497634 0.491021 0 0 0 0.0665171
56 4 0.503733 0.495361 0.499081 0 0 0 0.0693835
150 10 0.477842 0.508482 0.495099 0 0 0 0.0744385
12 4 0.5143 0.489903 0.496089 0 0 0 0.0768815
55 4 0.502239 0.49629 0.496648 0 0 0 0.0695119
10 5 0.51228 0.487326 0.492584 0 0 0 0.0767149
41 4 0.511394 0.496158 0.490492 0 0 0 0.0737253
51 2 0.506587 0.495964 0.495562 0 0 0 0.015403
24 3 0.52415 0.494866 0.492546 0 0 0 0.0169217
121 4 0.483639 0.510768 0.499038 0 0 0 0.0757807
65 13 0.496433 0.499093 0.498438 0 0 0 0.0324088
13 4 0.515609 0.488355 0.493758 0 0 0 0.0727757
9 5 0.510812 0.488967 0.494608 0 0 0 0.0789276
149 1 0.505601 0.494506 0.494535 0 0 0 -0.252352
15 2 0.5171 0.492823 0.493389 0 0 0 0.0165867
124 11 0.47849 0.507434 0.496323 0 0 0 -0.112731
25 4 0.525319 0.494403 0.491191 0 0 0 0.0735992
42 4 0.508512 0.495058 0.490116 0 0 0 0.0724762
68 13 0.495827 0.495456 0.496806 0 0 0 0.0280115
75 14 0.493434 0.500926 0.499545 0 0 0 0.0781751
27 7 0.52535 0.495393 0.494724 0 0 0 -0.112752
14 6 0.515039 0.491739 0.49331 0 0 0 -0.125262
126 10 0.477254 0.506684 0.497145 0 0 0 0.0726919
54 3 0.503554 0.496829 0.497972 0 0 0 0.0112837
37 10 0.516927 0.490146 0.497364 0 0 0 0.068934
123 8 0.479904 0.508723 0.497964 0 0 0 0.0291792
57 2 0.502875 0.498783 0.499427 0 0 0 0.0172363
7 5 0.511892 0.490503 0.490001 0 0 0 0.0756649
1 1 0.512808 0.494584 0.495874 0 0 0 -0.251532
72 13 0.492652 0.497867 0.497982 0 0 0 0.0285903
46 3 0.508657 0.499143 0.493723 0 0 0 0.0207074
71 14 0.492248 0.494858 0.49626 0 0 0 0.0792977
26 4 0.522871 0.496176 0.492178 0 0 0 0.0716398
16 3 0.518927 0.491575 0.494789 0 0 0 0.0145427
38 1 0.517281 0.494684 0.492662 0 0 0 -0.253462
21 3 0.522544 0.492825 0.492823 0 0 0 0.023877
62 3 0.498094 0.500777 0.499409 0 0 0 0.0237024
31 10 0.52785 0.499731 0.492493 0 0 0 0.0702344
2 2 0.512196 0.494581 0.493926 0 0 0 0.0165623
20 5 0.522053 0.492365 0.496324 0 0 0 0.0735977
23 5 0.521525 0.492892 0.491324 0 0 0 0.0771568
127 9 0.479192 0.51091 0.49842 0 0 0 -0.113869
116 3 0.485639 0.507897 0.499831 0 0 0 0.0251858
119 3 0.483381 0.509162 0.499727 0 0 0 0.0216243
47 5 0.51009 0.500103 0.494275 0 0 0 0.0784708
45 5 0.506974 0.498653 0.49048 0 0 0 0.0779135
151 10 0.526074 0.499178 0.497491 0 0 0 0.0704056
117 5 0.486094 0.507199 0.498074 0 0 0 0.0774617
48 5 0.507228 0.500028 0.494125 0 0 0 0.0788905
32 11 0.527329 0.49834 0.496548 0 0 0 -0.1134
44 5 0.50976 0.499852 0.490323 0 0 0 0.0758168
110 1 0.489887 0.50486 0.49998 0 0 0 -0.256359
112 16 0.492759 0.509163 0.500067 0 0 0 0.0599434
111 15 0.492405 0.507732 0.499374 0 0 0 -0.254215
115 5 0.488088 0.510356 0.499236 0 0 0 0.078203
104 2 0.488136 0.507829 0.505839 0 0 0 0.0118737
118 5 0.48543 0.506444 0.500967 0 0 0 0.0795996
76 2 0.497979 0.498826 0.503283 0 0 0 0.0187886
136 14 0.492606 0.504258 0.506728 0 0 0 0.080092
80 4 0.494067 0.496726 0.504961 0 0 0 0.0639017
84 15 0.496109 0.500797 0.508191 0 0 0 -0.241721
144 14 0.491583 0.510462 0.510115 0 0 0 0.0783033
137 13 0.494683 0.506799 0.505881 0 0 0 0.0304263
100 6 0.488115 0.503877 0.50642 0 0 0 -0.131225
94 3 0.48638 0.498058 0.506507 0 0 0 0.0166832
82 4 0.494104 0.497827 0.508898 0 0 0 0.0718144
135 13 0.49298 0.505958 0.507092 0 0 0 0.0382186
108 4 0.490506 0.509458 0.502392 0 0 0 0.0642444
134 13 0.491605 0.507247 0.508596 0 0 0 0.0389854
79 3 0.494445 0.49846 0.505437 0 0 0 0.00103256
92 5 0.486854 0.494523 0.507675 0 0 0 0.0805646
142 14 0.495098 0.511767 0.508521 0 0 0 0.0806052
143 13 0.49237 0.509442 0.508956 0 0 0 0.035919
101 10 0.488492 0.50396 0.504803 0 0 0 0.0672657
85 16 0.494884 0.501709 0.508801 0 0 0 0.070494
93 5 0.487491 0.49682 0.509772 0 0 0 0.0808511
132 5 0.488942 0.507797 0.510502 0 0 0 0.0778188
130 1 0.487963 0.509823 0.506236 0 0 0 -0.255395
89 4 0.490211 0.495388 0.505567 0 0 0 0.073251
114 5 0.48681 0.510778 0.501696 0 0 0 0.0764186
146 1 0.491922 0.501246 0.50411 0 0 0 -0.25527
61 4 0.500316 0.501347 0.502145 0 0 0 0.0728432
63 5 0.497098 0.502208 0.499892 0 0 0 0.0753391
140 14 0.496814 0.509505 0.505415 0 0 0 0.0791467
95 5 0.48566 0.497508 0.504986 0 0 0 0.0755817
105 6 0.48861 0.506961 0.503844 0 0 0 -0.137477
58 6 0.501197 0.498326 0.500805 0 0 0 -0.123456
131 3 0.489462 0.506393 0.509444 0 0 0 0.0242791
113 3 0.487451 0.509395 0.500684 0 0 0 0.0131162
99 2 0.488007 0.501862 0.507507 0 0 0 0.0119856
77 6 0.495915 0.499573 0.503804 0 0 0 -0.136149
81 3 0.495332 0.498558 0.507774 0 0 0 0.00966013
91 3 0.487492 0.496206 0.507925 0 0 0 0.0297113
107 3 0.489308 0.508219 0.501852 0 0 0 0.00723053
97 3 0.488235 0.499836 0.505973 0 0 0 0.0102016
103 4 0.486079 0.506097 0.508135 0 0 0 0.0689904
138 14 0.495663 0.505785 0.504635 0 0 0 0.0791825
90 4 0.491122 0.496137 0.508336 0 0 0 0.0748658
98 4 0.487886 0.500287 0.504348 0 0 0 0.0662961
86 2 0.492183 0.499667 0.505329 0 0 0 0.00981413
141 13 0.494377 0.510234 0.507959 0 0 0 0.0333268
78 10 0.495327 0.500928 0.502934 0 0 0 0.0678527
109 2 0.490499 0.506747 0.500244 0 0 0 0.006128
133 5 0.489519 0.505 0.510501 0 0 0 0.0788083
102 3 0.487774 0.50606 0.507515 0 0 0 0.00732956
96 5 0.485027 0.498736 0.507486 0 0 0 0.0788117
145 1 0.487955 0.501538 0.509518 0 0 0 -0.253553
83 4 0.4967 0.497279 0.507786 0 0 0 0.0769717
139 13 0.495384 0.508947 0.506337 0 0 0 0.0344272
87 6 0.490284 0.498792 0.506233 0 0 0 -0.125862
106 10 0.489084 0.505296 0.50366 0 0 0 0.067251
59 10 0.500938 0.496661 0.501102 0 0 0 0.0727619
88 3 0.48992 0.496507 0.507034 0 0 0 0.0217538
147 1 0.498626 0.497079 0.504068 0 0 0 -0.247002
60 3 0.499442 0.499922 0.501439 0 0 0 0.012021
120 4 0.482726 0.509343 0.501499 0 0 0 0.0751155
ITEM: TIMESTEP
2000000
ITEM: NUMBER OF ATOMS
151
ITEM: BOX BOUNDS pp pp pp
-3.0000000000000000e+02 3.0000000000000000e+02
-3.0000000000000000e+02 3.0000000000000000e+02
-3.0000000000000000e+02 3.0000000000000000e+02
ITEM: ATOMS id type xs ys zs ix iy iz q
52 6 0.506737 0.505882 0.498943 0 0 0 -0.125264
91 3 0.488986 0.495527 0.496444 0 0 0 0.02481
115 5 0.481851 0.491992 0.497666 0 0 0 0.0761149
96 5 0.487068 0.493414 0.498594 0 0 0 0.0745968
42 4 0.512198 0.508896 0.494729 0 0 0 0.0784494
97 3 0.49058 0.49364 0.499815 0 0 0 0.00911708
104 2 0.486397 0.487201 0.499937 0 0 0 0.0137849
10 5 0.519594 0.504829 0.498193 0 0 0 0.0762454
83 4 0.498839 0.494033 0.499382 0 0 0 0.0805428
106 10 0.486277 0.490534 0.499413 0 0 0 0.0657196
76 2 0.498991 0.499389 0.498437 0 0 0 0.0229574
150 10 0.489963 0.489325 0.494232 0 0 0 0.067919
64 5 0.497127 0.503588 0.497789 0 0 0 0.0770249
24 3 0.523707 0.516996 0.499038 0 0 0 0.0163947
93 5 0.488072 0.494532 0.495288 0 0 0 0.0742457
55 4 0.505558 0.504165 0.496068 0 0 0 0.0730482
67 14 0.493368 0.503325 0.498729 0 0 0 0.0791651
87 6 0.492325 0.49468 0.498512 0 0 0 -0.12556
94 3 0.488422 0.494718 0.498803 0 0 0 0.015914
118 5 0.479641 0.488214 0.495766 0 0 0 0.0778623
45 5 0.508938 0.51061 0.494351 0 0 0 0.0804127
88 3 0.491468 0.494891 0.496231 0 0 0 0.0224181
41 4 0.513199 0.511554 0.495982 0 0 0 0.0769438
114 5 0.479802 0.490339 0.498788 0 0 0 0.079036
148 1 0.502406 0.505461 0.500052 0 0 0 -0.248776
122 7 0.484715 0.490407 0.494353 0 0 0 -0.11353
124 11 0.488584 0.48994 0.495025 0 0 0 -0.119569
79 3 0.496008 0.496434 0.498699 0 0 0 0.00983403
117 5 0.482035 0.487002 0.496615 0 0 0 0.0798688
23 5 0.522802 0.513708 0.497951 0 0 0 0.0766461
92 5 0.488633 0.49729 0.496021 0 0 0 0.0765845
145 1 0.49241 0.490201 0.498826 0 0 0 -0.254491
81 3 0.497065 0.494293 0.499796 0 0 0 0.0174469
121 4 0.481529 0.49081 0.493131 0 0 0 0.0742127
113 3 0.481486 0.490295 0.498131 0 0 0 0.0161021
80 4 0.496205 0.496272 0.496927 0 0 0 0.0691764
128 10 0.484913 0.486188 0.494214 0 0 0 0.0635431
4 4 0.516011 0.508502 0.496733 0 0 0 0.0681233
120 4 0.482425 0.488082 0.492723 0 0 0 0.0752064
90 4 0.49165 0.493263 0.495423 0 0 0 0.0736511
59 10 0.502349 0.501248 0.497039 0 0 0 0.074199
39 6 0.512015 0.508971 0.498226 0 0 0 -0.120796
129 10 0.487608 0.485961 0.494104 0 0 0 0.0670853
147 1 0.500022 0.49854 0.496968 0 0 0 -0.248575
123 8 0.486351 0.489137 0.493969 0 0 0 0.0186847
38 1 0.518135 0.512277 0.497603 0 0 0 -0.256988
127 9 0.486291 0.486858 0.493602 0 0 0 -0.118543
103 4 0.489726 0.486832 0.498929 0 0 0 0.0703665
25 4 0.52546 0.516734 0.498507 0 0 0 0.073902
57 2 0.503089 0.504026 0.498828 0 0 0 0.0157465
62 3 0.497743 0.503515 0.499448 0 0 0 0.0240666
126 10 0.488666 0.489677 0.496703 0 0 0 0.0676937
105 6 0.485288 0.48919 0.499458 0 0 0 -0.137138
49 3 0.509709 0.508708 0.498974 0 0 0 0.017348
56 4 0.506356 0.502442 0.498529 0 0 0 0.0726761
125 10 0.488604 0.491669 0.494926 0 0 0 0.0624952
130 1 0.485383 0.485516 0.500404 0 0 0 -0.252205
58 6 0.501692 0.502388 0.498191 0 0 0 -0.121652
95 5 0.487765 0.496062 0.499833 0 0 0 0.0749818
89 4 0.492507 0.496031 0.495201 0 0 0 0.0753213
86 2 0.493454 0.496557 0.499252 0 0 0 0.0103564
116 3 0.481358 0.488617 0.496162 0 0 0 0.0272198
119 3 0.482469 0.489516 0.493946 0 0 0 0.0192519
77 6 0.497175 0.498377 0.499537 0 0 0 -0.131301
82 4 0.496243 0.492777 0.499253 0 0 0 0.0750659
7 5 0.515659 0.504837 0.497411 0 0 0 0.0790354
99 2 0.490761 0.491118 0.499575 0 0 0 0.00867549
46 3 0.508448 0.510695 0.497929 0 0 0 0.0223037
149 1 0.509726 0.505461 0.496599 0 0 0 -0.250309
43 3 0.509724 0.511356 0.495784 0 0 0 0.0339168
40 3 0.512015 0.510205 0.496077 0 0 0 0.0251362
44 5 0.50981 0.513192 0.495674 0 0 0 0.0787964
54 3 0.505538 0.503997 0.497978 0 0 0 0.0125964
51 2 0.5088 0.50656 0.498078 0 0 0 0.017923
48 5 0.506794 0.510135 0.497376 0 0 0 0.0800495
15 2 0.518715 0.511213 0.499229 0 0 0 0.0147734
60 3 0.499745 0.501686 0.499382 0 0 0 0.0129073
5 3 0.516077 0.50574 0.499005 0 0 0 0.0207454
3 3 0.515976 0.508211 0.498576 0 0 0 0.0136226
26 4 0.522755 0.517881 0.497704 0 0 0 0.0717168
47 5 0.508303 0.512107 0.499197 0 0 0 0.079475
63 5 0.498408 0.505233 0.499649 0 0 0 0.0788125
8 3 0.518512 0.505211 0.499612 0 0 0 0.0297184
14 6 0.517962 0.509181 0.49973 0 0 0 -0.126199
2 2 0.513782 0.509127 0.499644 0 0 0 0.0198664
21 3 0.522838 0.514638 0.499589 0 0 0 0.0246423
35 12 0.51778 0.512677 0.502922 0 0 0 -0.123043
136 14 0.489139 0.490396 0.504879 0 0 0 0.0753535
143 13 0.486536 0.485409 0.505385 0 0 0 0.0368481
16 3 0.519572 0.512412 0.501263 0 0 0 0.0147289
132 5 0.48948 0.484391 0.502242 0 0 0 0.0775722
13 4 0.521004 0.507665 0.50066 0 0 0 0.0708942
133 5 0.491231 0.486292 0.502788 0 0 0 0.0778236
66 13 0.493683 0.503162 0.500515 0 0 0 0.036214
100 6 0.489064 0.489873 0.500487 0 0 0 -0.134646
151 10 0.526694 0.519757 0.505072 0 0 0 0.0695399
68 13 0.491983 0.502586 0.502071 0 0 0 0.0330476
32 11 0.525285 0.520018 0.504281 0 0 0 -0.114367
34 10 0.523857 0.519666 0.505068 0 0 0 0.0702016
146 1 0.492782 0.497675 0.500829 0 0 0 -0.254679
142 14 0.483704 0.484868 0.507442 0 0 0 0.0791887
131 3 0.489576 0.486168 0.502528 0 0 0 0.0209671
70 13 0.492649 0.502139 0.504237 0 0 0 0.03342
36 10 0.516507 0.513666 0.50244 0 0 0 0.0734611
71 14 0.491462 0.50179 0.505638 0 0 0 0.0787219
69 14 0.490236 0.502931 0.50166 0 0 0 0.0789351
144 14 0.486348 0.483719 0.504832 0 0 0 0.0791502
20 5 0.520867 0.515341 0.502683 0 0 0 0.0743206
9 5 0.518577 0.503856 0.500729 0 0 0 0.0784271
17 4 0.520771 0.511254 0.502026 0 0 0 0.0636639
137 13 0.486395 0.489701 0.50706 0 0 0 0.0295402
1 1 0.5135 0.509248 0.501641 0 0 0 -0.252263
78 10 0.496511 0.499016 0.500971 0 0 0 0.0703105
61 4 0.500178 0.501443 0.501071 0 0 0 0.0711428
30 10 0.527943 0.518428 0.499811 0 0 0 0.06494
6 5 0.514939 0.505069 0.500239 0 0 0 0.0813623
28 8 0.525437 0.518958 0.502027 0 0 0 0.0210381
112 16 0.480475 0.489374 0.502905 0 0 0 0.0612458
72 13 0.49487 0.502392 0.50492 0 0 0 0.0281318
73 14 0.495306 0.502528 0.506692 0 0 0 0.0786025
29 9 0.527581 0.518363 0.501457 0 0 0 -0.119068
134 13 0.488113 0.486943 0.504581 0 0 0 0.0336836
98 4 0.490639 0.494096 0.501581 0 0 0 0.0668517
33 10 0.525285 0.521751 0.503963 0 0 0 0.070262
109 2 0.482884 0.491209 0.502033 0 0 0 0.00634825
50 4 0.509525 0.508655 0.500751 0 0 0 0.0697899
74 13 0.496503 0.502796 0.503378 0 0 0 0.0360818
111 15 0.481265 0.490664 0.503493 0 0 0 -0.251901
135 13 0.488023 0.48914 0.505419 0 0 0 0.0320067
75 14 0.498235 0.503031 0.503974 0 0 0 0.0797981
12 4 0.518822 0.507381 0.502662 0 0 0 0.0717907
84 15 0.496995 0.494556 0.502119 0 0 0 -0.236223
11 3 0.519279 0.507373 0.500889 0 0 0 0.018478
101 10 0.487812 0.49072 0.501158 0 0 0 0.0634292
18 3 0.520633 0.5147 0.500907 0 0 0 0.0162628
65 13 0.495938 0.503109 0.501189 0 0 0 0.0364505
37 10 0.517081 0.511104 0.503223 0 0 0 0.0742817
108 4 0.482264 0.488081 0.500879 0 0 0 0.0665956
85 16 0.498313 0.494033 0.502833 0 0 0 0.0761274
22 5 0.52396 0.513725 0.500701 0 0 0 0.0738499
110 1 0.484363 0.492521 0.502348 0 0 0 -0.258427
31 10 0.528766 0.519168 0.50227 0 0 0 0.0670575
140 14 0.483679 0.488758 0.508889 0 0 0 0.0813446
19 5 0.519434 0.515892 0.500169 0 0 0 0.0757663
139 13 0.484965 0.488221 0.507819 0 0 0 0.0339477
141 13 0.484926 0.486104 0.506902 0 0 0 0.0335124
138 14 0.486562 0.491338 0.50791 0 0 0 0.0765029
27 7 0.523622 0.518373 0.501065 0 0 0 -0.114472
107 3 0.482939 0.489583 0.500168 0 0 0 0.00521177
102 3 0.488852 0.487484 0.500436 0 0 0 0.00863666
53 10 0.506027 0.506972 0.500083 0 0 0 0.0728314
ITEM: TIMESTEP
3000000
ITEM: NUMBER OF ATOMS
151
ITEM: BOX BOUNDS pp pp pp
-3.0000000000000000e+02 3.0000000000000000e+02
-3.0000000000000000e+02 3.0000000000000000e+02
-3.0000000000000000e+02 3.0000000000000000e+02
ITEM: ATOMS id type xs ys zs ix iy iz q
39 6 0.488846 0.489603 0.498144 0 0 0 -0.122065
52 6 0.492826 0.494315 0.498705 0 0 0 -0.124736
88 3 0.508646 0.504569 0.497577 0 0 0 0.0234134
93 5 0.511663 0.506424 0.496787 0 0 0 0.0762134
4 4 0.487148 0.485546 0.497082 0 0 0 0.0681118
53 10 0.491831 0.495442 0.499475 0 0 0 0.073733
41 4 0.488045 0.487005 0.500395 0 0 0 0.0766057
147 1 0.501444 0.499871 0.497097 0 0 0 -0.247115
151 10 0.471732 0.480423 0.492742 0 0 0 0.0705057
9 5 0.487269 0.489556 0.491915 0 0 0 0.0813288
36 10 0.480001 0.487694 0.497563 0 0 0 0.0725832
149 1 0.492965 0.490846 0.497162 0 0 0 -0.249449
19 5 0.479116 0.4836 0.497662 0 0 0 0.075552
30 10 0.475346 0.476429 0.496989 0 0 0 0.0656551
7 5 0.488883 0.485053 0.49357 0 0 0 0.0774595
12 4 0.483588 0.488596 0.492163 0 0 0 0.0738264
33 10 0.470876 0.477877 0.493399 0 0 0 0.0707678
50 4 0.488417 0.493137 0.497934 0 0 0 0.0709741
40 3 0.489429 0.488149 0.500047 0 0 0 0.0232468
2 2 0.486871 0.489166 0.496997 0 0 0 0.0183481
55 4 0.496231 0.493495 0.498609 0 0 0 0.0719556
13 4 0.48415 0.485725 0.4915 0 0 0 0.0713542
16 3 0.480585 0.485535 0.494982 0 0 0 0.0147857
8 3 0.487099 0.487759 0.491961 0 0 0 0.0321957
1 1 0.485657 0.490655 0.496352 0 0 0 -0.25271
32 11 0.471574 0.479317 0.494036 0 0 0 -0.114853
128 10 0.518432 0.513663 0.497014 0 0 0 0.0629478
29 9 0.474012 0.476708 0.496019 0 0 0 -0.116999
83 4 0.50176 0.504808 0.4966 0 0 0 0.0750713
28 8 0.473807 0.478831 0.4951 0 0 0 0.0212879
91 3 0.511175 0.50494 0.497739 0 0 0 0.026169
25 4 0.478086 0.478037 0.494819 0 0 0 0.0747964
5 3 0.488435 0.486793 0.49391 0 0 0 0.0216374
84 15 0.501602 0.506457 0.499601 0 0 0 -0.239592
15 2 0.483024 0.48506 0.495681 0 0 0 0.0149248
22 5 0.479226 0.481563 0.492936 0 0 0 0.0747398
27 7 0.475379 0.48026 0.494686 0 0 0 -0.112533
11 3 0.484661 0.487161 0.492501 0 0 0 0.0205091
24 3 0.477623 0.479665 0.495513 0 0 0 0.0187587
31 10 0.472557 0.475894 0.496432 0 0 0 0.0688294
54 3 0.495152 0.494905 0.498195 0 0 0 0.0122165
79 3 0.50407 0.503363 0.49897 0 0 0 0.00764506
6 5 0.489938 0.48775 0.494241 0 0 0 0.0797266
20 5 0.477235 0.484344 0.495496 0 0 0 0.0740788
42 4 0.490959 0.487188 0.49965 0 0 0 0.0770924
14 6 0.484571 0.48659 0.494885 0 0 0 -0.125837
21 3 0.479308 0.481428 0.49474 0 0 0 0.0230483
10 5 0.487649 0.487092 0.490353 0 0 0 0.0789673
23 5 0.481007 0.480853 0.495163 0 0 0 0.0779246
51 2 0.4919 0.49228 0.49811 0 0 0 0.0194557
34 10 0.470517 0.479965 0.49514 0 0 0 0.0707473
59 10 0.498938 0.497062 0.497881 0 0 0 0.0730802
26 4 0.477597 0.479519 0.497342 0 0 0 0.0734407
57 2 0.495871 0.497005 0.499513 0 0 0 0.0180379
56 4 0.495318 0.495267 0.496401 0 0 0 0.072421
82 4 0.50407 0.506516 0.497207 0 0 0 0.0754227
17 4 0.480512 0.485573 0.493158 0 0 0 0.0638381
38 1 0.483413 0.483922 0.497299 0 0 0 -0.257104
3 3 0.486795 0.486868 0.495884 0 0 0 0.0129195
127 9 0.517304 0.512557 0.49644 0 0 0 -0.119782
35 12 0.479924 0.487711 0.495846 0 0 0 -0.121993
58 6 0.498003 0.497813 0.499058 0 0 0 -0.121673
49 3 0.489474 0.491904 0.49877 0 0 0 0.0180971
37 10 0.481003 0.488896 0.495341 0 0 0 0.0719809
18 3 0.478939 0.483748 0.495848 0 0 0 0.0162314
76 2 0.501102 0.500446 0.499012 0 0 0 0.0216532
80 4 0.504872 0.502358 0.497669 0 0 0 0.0709604
81 3 0.502869 0.505371 0.49792 0 0 0 0.0163129
90 4 0.507928 0.505452 0.496145 0 0 0 0.0754774
89 4 0.508326 0.502774 0.497401 0 0 0 0.0750271
92 5 0.512092 0.503483 0.497132 0 0 0 0.0765468
125 10 0.514801 0.508122 0.496581 0 0 0 0.0676956
129 10 0.51585 0.513182 0.49588 0 0 0 0.0664266
123 8 0.517228 0.510492 0.497499 0 0 0 0.0205473
124 11 0.514911 0.509488 0.497587 0 0 0 -0.116921
150 10 0.513735 0.510606 0.497103 0 0 0 0.0685997
145 1 0.508191 0.50972 0.499112 0 0 0 -0.255293
103 4 0.511382 0.512573 0.498912 0 0 0 0.0684113
120 4 0.521212 0.511866 0.497876 0 0 0 0.0751523
126 10 0.514552 0.509018 0.499188 0 0 0 0.0665043
119 3 0.520634 0.51102 0.499393 0 0 0 0.0199155
87 6 0.507619 0.505352 0.499663 0 0 0 -0.125515
122 7 0.518615 0.509705 0.498925 0 0 0 -0.11231
111 15 0.516957 0.513384 0.508013 0 0 0 -0.250456
47 5 0.487422 0.492346 0.501725 0 0 0 0.0794389
131 3 0.510021 0.514056 0.501922 0 0 0 0.0174157
97 3 0.509391 0.506412 0.500989 0 0 0 0.00846182
106 10 0.514423 0.510322 0.503179 0 0 0 0.0660112
63 5 0.49804 0.498288 0.503423 0 0 0 0.0802169
67 14 0.502892 0.499673 0.505664 0 0 0 0.077428
109 2 0.516387 0.511857 0.506449 0 0 0 0.00765071
130 1 0.514662 0.514988 0.500784 0 0 0 -0.25179
107 3 0.516941 0.512612 0.504105 0 0 0 0.00731667
44 5 0.488807 0.489088 0.503501 0 0 0 0.0776731
98 4 0.509125 0.506146 0.502775 0 0 0 0.0644403
61 4 0.497776 0.501111 0.500146 0 0 0 0.0733758
146 1 0.505524 0.504169 0.502631 0 0 0 -0.250606
77 6 0.502458 0.501943 0.500123 0 0 0 -0.132205
74 13 0.498699 0.503149 0.504028 0 0 0 0.0327718
118 5 0.521643 0.513748 0.501536 0 0 0 0.0798479
65 13 0.499985 0.501198 0.504185 0 0 0 0.0336772
134 13 0.510618 0.514316 0.504365 0 0 0 0.0317377
73 14 0.498223 0.506478 0.505205 0 0 0 0.0761817
117 5 0.518893 0.513966 0.500571 0 0 0 0.0797623
71 14 0.501562 0.506435 0.507626 0 0 0 0.0750451
96 5 0.51304 0.506312 0.500554 0 0 0 0.0740618
69 14 0.503908 0.502987 0.507879 0 0 0 0.0761578
104 2 0.514014 0.513111 0.501203 0 0 0 0.0127016
75 14 0.49726 0.503214 0.50295 0 0 0 0.077222
46 3 0.48918 0.492013 0.501321 0 0 0 0.0232261
45 5 0.491589 0.489597 0.50257 0 0 0 0.0811567
139 13 0.511918 0.514702 0.508846 0 0 0 0.0348265
43 3 0.489818 0.489646 0.502078 0 0 0 0.0322505
148 1 0.494641 0.497895 0.500864 0 0 0 -0.247052
94 3 0.511565 0.505321 0.50023 0 0 0 0.0146557
114 5 0.520449 0.512252 0.504788 0 0 0 0.0795232
72 13 0.499262 0.505019 0.505295 0 0 0 0.0264193
110 1 0.515042 0.510376 0.506812 0 0 0 -0.255072
66 13 0.501855 0.501175 0.505573 0 0 0 0.0356135
142 14 0.513402 0.517788 0.507891 0 0 0 0.0814031
108 4 0.516936 0.514425 0.504111 0 0 0 0.0647433
60 3 0.498964 0.499736 0.500256 0 0 0 0.0162987
140 14 0.512463 0.514792 0.510567 0 0 0 0.0813277
70 13 0.501139 0.504964 0.50667 0 0 0 0.0292652
78 10 0.50201 0.502468 0.501655 0 0 0 0.0689087
99 2 0.509427 0.508918 0.500501 0 0 0 0.00770538
48 5 0.49023 0.493287 0.502106 0 0 0 0.0805397
116 3 0.520113 0.512772 0.501222 0 0 0 0.0270215
64 5 0.500855 0.498017 0.502748 0 0 0 0.0777939
113 3 0.519288 0.511776 0.503444 0 0 0 0.0180381
100 6 0.511206 0.510096 0.501364 0 0 0 -0.135258
86 2 0.505863 0.504187 0.500628 0 0 0 0.0144904
112 16 0.517885 0.514491 0.507261 0 0 0 0.0610432
101 10 0.512297 0.509297 0.502376 0 0 0 0.0619294
115 5 0.519295 0.509962 0.503409 0 0 0 0.0797142
95 5 0.511745 0.503726 0.501118 0 0 0 0.0740069
102 3 0.511613 0.512435 0.500725 0 0 0 0.00595604
105 6 0.515163 0.511754 0.502659 0 0 0 -0.135367
121 4 0.521994 0.509909 0.49998 0 0 0 0.074307
62 3 0.49946 0.499185 0.502719 0 0 0 0.0253524
68 13 0.502428 0.503032 0.506812 0 0 0 0.0282389
85 16 0.502627 0.506985 0.500695 0 0 0 0.0751472
138 14 0.510362 0.511488 0.5093 0 0 0 0.0777663
137 13 0.510726 0.512828 0.508133 0 0 0 0.0297039
141 13 0.512462 0.516392 0.507328 0 0 0 0.032775
132 5 0.510071 0.515702 0.501067 0 0 0 0.0755202
144 14 0.512307 0.517479 0.503884 0 0 0 0.078845
143 13 0.511825 0.516211 0.50508 0 0 0 0.0358246
133 5 0.508315 0.513467 0.501749 0 0 0 0.0744887