
151	atoms
155	bonds
280	angles
415	dihedrals

16	atom types
22	bond types
43	angle types
42	dihedral types

-300.0 300.0 xlo xhi
-300.0 300.0 ylo yhi
-300.0 300.0 zlo zhi

Masses

1	16.0	#o
2	12.01	#c
3	12.01	#c3
4	1.008	#h1
5	1.008	#hc
6	14.01	#n
7	14.01	#n2
8	12.01	#c2
9	14.01	#nh
10	1.008	#hn
11	14.01	#n4
12	14.01	#n3
13	12.01	#ca
14	1.008	#ha
15	16.0	#oh
16	1.008	#ho

Pair Coeffs

1	0.1463	3.04812087425	#o
2	0.0988	3.31521230994	#c
3	0.1078	3.39770953124	#c3
4	0.0208	2.42199725514	#h1
5	0.0208	2.60017699876	#hc
6	0.1636	3.18086478325	#n
7	0.0941	3.38416787073	#n2
8	0.0988	3.31521230994	#c2
9	0.215	3.18995195017	#nh
10	0.01	1.10649620793	#hn
11	3.8748	2.49950544361	#n4
12	0.0858	3.36510263816	#n3
13	0.0988	3.31521230994	#ca
14	0.0161	2.62547852236	#ha
15	0.093	3.24287133403	#oh
16	0.0047	0.537924646013	#ho

Bond Coeffs

1	652.57	1.218	#c-o
2	243.22	1.524	#c-c3
3	356.21	1.379	#c-n
4	375.92	1.097	#c3-h1
5	232.52	1.538	#c3-c3
6	263.77	1.462	#c3-n
7	375.92	1.097	#c3-hc
8	261.19	1.465	#c3-n3
9	259.91	1.466	#c3-n2
10	518.67	1.282	#c2-n2
11	345.39	1.387	#c2-nh
12	221.45	1.512	#c2-n4
13	529.46	1.012	#hn-nh
14	482.87	1.03	#hn-n4
15	511.28	1.019	#hn-n3
16	527.31	1.013	#hn-n
17	250.32	1.516	#c3-ca
18	378.57	1.398	#ca-ca
19	395.72	1.086	#ca-ha
20	293.4	1.423	#c3-oh
21	563.51	0.973	#ho-oh
22	383.13	1.351	#c-oh

Angle Coeffs

1	84.552	123.2	#c3-c-o
2	113.811	123.05	#n-c-o
3	84.266	115.18	#c3-c-n
4	47.531	108.22	#c-c3-h1
5	65.307	111.04	#c-c3-c3
6	46.868	109.56	#c3-c3-h1
7	84.54	109.06	#c-c3-n
8	61.544	108.88	#h1-c3-n
9	83.161	111.61	#c3-c3-n
10	46.816	109.8	#c3-c3-hc
11	38.96	107.58	#hc-c3-hc
12	64.888	111.51	#c3-c3-c3
13	38.802	108.46	#h1-c3-h1
14	64.88	115.64	#c3-n-c3
15	65.252	120.69	#c-n-c3
16	83.673	111.14	#c-c3-n3
17	61.163	109.88	#h1-c3-n3
18	83.305	111.04	#c3-c3-n3
19	84.123	108.8	#c3-c3-n2
20	61.133	109.81	#h1-c3-n2
21	68.517	115.3	#c2-n2-c3
22	110.708	124.27	#n2-c2-nh
23	109.745	112.97	#n2-c2-n4
24	106.945	111.23	#n4-c2-nh
25	48.954	115.09	#c2-nh-hn
26	39.519	115.12	#hn-nh-hn
27	46.094	110.37	#c2-n4-hn
28	40.02	108.3	#hn-n4-hn
29	47.782	109.29	#c3-n3-hn
30	40.828	106.4	#hn-n3-hn
31	48.691	117.55	#c-n-hn
32	46.147	117.68	#c3-n-hn
33	65.183	112.07	#c3-c3-ca
34	47.281	110.47	#ca-c3-hc
35	65.583	120.77	#c3-ca-ca
36	68.767	120.02	#ca-ca-ca
37	48.68	119.88	#ca-ca-ha
38	84.642	110.19	#c3-c3-oh
39	62.54	110.26	#h1-c3-oh
40	49.027	107.26	#c3-oh-ho
41	85.803	112.73	#c3-c-oh
42	115.745	122.1	#o-c-oh
43	51.617	106.55	#c-oh-ho

Dihedral Coeffs

1	2	0.8	1	0.0	0.08	3	180.0	#h1-c3-c-o
2	1	0.0	2	180.0	#X-c-c3-X
3	1	0.27	2	180.0	#o-c-c3-c3
4	3	0.03	2	180.0	0.55	3	180.0	0.74	1	0.0	#c3-c3-c-o
5	2	0.0	4	180.0	0.71	2	180.0	#n-c-c3-c3
6	2	0.1	1	180.0	2.12	2	180.0	#n-c-c3-n
7	1	0.155555555556	3	0.0	#X-c3-c3-X
8	1	0.1	3	0.0	#c-c3-c3-c3
9	1	0.1	3	0.0	#n-c3-c3-c3
10	1	0.08	3	0.0	#hc-c3-c3-c3
11	1	0.08	3	0.0	#c3-c3-c3-hc
12	1	0.12	3	0.0	#hc-c3-c3-hc
13	3	0.13	3	0.0	0.29	2	180.0	0.11	1	0.0	#c3-c3-c3-c3
14	1	0.0	2	0.0	#X-c3-n-X
15	2	0.39	2	180.0	0.64	1	0.0	#c-c3-n-c
16	1	0.0	2	180.0	#h1-c3-n-c
17	3	0.1	4	180.0	0.17	3	0.0	1.02	1	180.0	#c-n-c3-c3
18	3	0.65	4	180.0	0.03	3	180.0	2.26	1	0.0	#c3-c3-n-c
19	2	0.26	2	180.0	0.5	1	0.0	#c3-n-c-c3
20	1	2.5	2	180.0	#X-c-n-X
21	1	0.1	3	0.0	#hc-c3-c3-n3
22	1	0.21	3	0.0	#n3-c3-c3-c3
23	1	0.0	3	0.0	#X-c3-n2-X
24	1	0.165	3	180.0	#h1-c3-n2-c2
25	1	4.15	2	180.0	#X-c2-n2-X
26	1	0.675	2	180.0	#X-c2-nh-X
27	1	0.0	3	180.0	#X-c2-n4-X
28	1	0.3	3	0.0	#X-c3-n3-X
29	1	0.217	3	0.0	#hn-n3-c3-c3
30	2	2.5	2	180.0	2.0	1	0.0	#hn-n-c-o
31	1	0.21	3	0.0	#ca-c3-c3-n
32	1	0.1	3	0.0	#ca-c3-c3-c
33	1	0.245	2	180.0	#c3-c3-ca-ca
34	1	0.0	2	180.0	#hc-c3-ca-ca
35	1	3.625	2	180.0	#X-ca-ca-X
36	1	0.101	3	0.0	#oh-c3-c3-n
37	2	0.0	3	0.0	0.25	1	0.0	#h1-c3-c3-oh
38	1	0.21	3	0.0	#oh-c3-c3-c
39	1	0.0	3	0.0	#ho-oh-c3-c3
40	1	0.113	3	0.0	#ho-oh-c3-h1
41	1	1.78	2	180.0	#ho-oh-c-c3
42	2	2.3	2	180.0	1.9	1	0.0	#ho-oh-c-o




Atoms

1	1	1	0.013245033112582781	8.52	0.027	-0.395
2	1	2	0.013245033112582781	9.146	1.007	-0.037
3	1	3	0.013245033112582781	10.61	1.18	-0.444
4	1	4	0.013245033112582781	11.088	1.923	0.196
5	1	3	0.013245033112582781	10.715	1.649	-1.907
6	1	5	0.013245033112582781	9.896	1.232	-2.499
7	1	5	0.013245033112582781	10.692	2.738	-1.992
8	1	3	0.013245033112582781	12.041	1.056	-2.391
9	1	5	0.013245033112582781	12.051	0.885	-3.47
10	1	5	0.013245033112582781	12.862	1.728	-2.13
11	1	3	0.013245033112582781	12.166	-0.248	-1.594
12	1	4	0.013245033112582781	11.717	-1.083	-2.14
13	1	4	0.013245033112582781	13.22	-0.463	-1.396
14	1	6	0.013245033112582781	11.427	-0.044	-0.339
15	1	2	0.013245033112582781	11.458	-0.851	0.758
16	1	3	0.013245033112582781	12.346	-2.089	0.717
17	1	4	0.013245033112582781	12.553	-2.347	-0.323
18	1	3	0.013245033112582781	13.671	-1.787	1.451
19	1	5	0.013245033112582781	14.03	-0.802	1.144
20	1	5	0.013245033112582781	13.493	-1.742	2.529
21	1	3	0.013245033112582781	14.768	-2.825	1.139
22	1	5	0.013245033112582781	14.433	-3.828	1.414
23	1	5	0.013245033112582781	14.968	-2.823	0.064
24	1	3	0.013245033112582781	16.054	-2.478	1.913
25	1	4	0.013245033112582781	16.325	-1.432	1.739
26	1	4	0.013245033112582781	15.893	-2.627	2.985
27	1	7	0.013245033112582781	17.17	-3.348	1.457
28	1	8	0.013245033112582781	18.147	-3.748	1.137
29	1	9	0.013245033112582781	18.573	-3.194	0.283
30	1	10	0.013245033112582781	17.987	-2.49	-0.166
31	1	10	0.013245033112582781	19.47	-3.139	-0.203
32	1	11	0.013245033112582781	18.188	-4.581	1.86
33	1	10	0.013245033112582781	17.732	-5.369	1.37
34	1	10	0.013245033112582781	19.206	-4.755	1.842
35	1	12	0.013245033112582781	11.662	-3.24	1.334
36	1	10	0.013245033112582781	12.274	-4.051	1.372
37	1	10	0.013245033112582781	11.384	-3.01	2.287
38	1	1	0.013245033112582781	10.942	-0.505	1.803
39	1	6	0.013245033112582781	8.552	1.994	0.691
40	1	3	0.013245033112582781	9.221	3.176	1.254
41	1	4	0.013245033112582781	10.121	2.894	1.809
42	1	4	0.013245033112582781	9.479	3.859	0.439
43	1	3	0.013245033112582781	8.213	3.84	2.2
44	1	5	0.013245033112582781	8.332	3.431	3.207
45	1	5	0.013245033112582781	8.339	4.925	2.242
46	1	3	0.013245033112582781	6.851	3.432	1.634
47	1	5	0.013245033112582781	6.081	3.383	2.407
48	1	5	0.013245033112582781	6.544	4.16	0.878
49	1	3	0.013245033112582781	7.104	2.06	0.981
50	1	4	0.013245033112582781	6.874	1.267	1.7
51	1	2	0.013245033112582781	6.2	1.871	-0.229
52	1	6	0.013245033112582781	4.993	1.327	0.038
53	1	10	0.013245033112582781	4.774	1.05	0.983
54	1	3	0.013245033112582781	3.956	1.092	-0.974
55	1	4	0.013245033112582781	3.932	1.933	-1.673
56	1	4	0.013245033112582781	4.184	0.175	-1.522
57	1	2	0.013245033112582781	2.567	0.947	-0.381
58	1	6	0.013245033112582781	1.564	1.023	-1.285
59	1	10	0.013245033112582781	1.8	1.104	-2.262
60	1	3	0.013245033112582781	0.129	1.123	-0.959
61	1	4	0.013245033112582781	-0.052	0.616	-0.006
62	1	3	0.013245033112582781	-0.328	2.597	-0.837
63	1	5	0.013245033112582781	-0.203	3.094	-1.803
64	1	5	0.013245033112582781	-1.396	2.628	-0.608
65	1	13	0.013245033112582781	0.426	3.367	0.238
66	1	13	0.013245033112582781	1.517	4.171	-0.102
67	1	14	0.013245033112582781	1.829	4.26	-1.14
68	1	13	0.013245033112582781	2.223	4.853	0.887
69	1	14	0.013245033112582781	3.075	5.473	0.618
70	1	13	0.013245033112582781	1.839	4.74	2.222
71	1	14	0.013245033112582781	2.389	5.272	2.994
72	1	13	0.013245033112582781	0.75	3.942	2.566
73	1	14	0.013245033112582781	0.452	3.85	3.607
74	1	13	0.013245033112582781	0.047	3.256	1.577
75	1	14	0.013245033112582781	-0.796	2.628	1.856
76	1	2	0.013245033112582781	-0.713	0.403	-2.003
77	1	6	0.013245033112582781	-1.975	0.09	-1.627
78	1	10	0.013245033112582781	-2.288	0.343	-0.702
79	1	3	0.013245033112582781	-2.856	-0.82	-2.379
80	1	4	0.013245033112582781	-2.634	-0.691	-3.441
81	1	3	0.013245033112582781	-2.543	-2.28	-1.982
82	1	4	0.013245033112582781	-3.159	-2.973	-2.555
83	1	4	0.013245033112582781	-1.494	-2.501	-2.196
84	1	15	0.013245033112582781	-2.79	-2.483	-0.591
85	1	16	0.013245033112582781	-3.089	-3.401	-0.482
86	1	2	0.013245033112582781	-4.344	-0.495	-2.192
87	1	6	0.013245033112582781	-5.235	-0.984	-3.106
88	1	3	0.013245033112582781	-4.903	-1.793	-4.294
89	1	4	0.013245033112582781	-4.056	-1.378	-4.845
90	1	4	0.013245033112582781	-4.682	-2.816	-3.979
91	1	3	0.013245033112582781	-6.153	-1.808	-5.182
92	1	5	0.013245033112582781	-6.121	-0.964	-5.874
93	1	5	0.013245033112582781	-6.242	-2.735	-5.754
94	1	3	0.013245033112582781	-7.301	-1.623	-4.188
95	1	5	0.013245033112582781	-8.177	-1.163	-4.65
96	1	5	0.013245033112582781	-7.586	-2.597	-3.781
97	1	3	0.013245033112582781	-6.694	-0.739	-3.084
98	1	4	0.013245033112582781	-6.84	0.31	-3.36
99	1	2	0.013245033112582781	-7.406	-0.967	-1.754
100	1	6	0.013245033112582781	-8.239	0.032	-1.389
101	1	10	0.013245033112582781	-8.286	0.846	-1.981
102	1	3	0.013245033112582781	-9.048	0.077	-0.161
103	1	4	0.013245033112582781	-8.366	-0.062	0.684
104	1	2	0.013245033112582781	-10.1	-1.02	-0.09
105	1	6	0.013245033112582781	-9.996	-1.849	0.97
106	1	10	0.013245033112582781	-9.176	-1.785	1.557
107	1	3	0.013245033112582781	-10.969	-2.894	1.319
108	1	4	0.013245033112582781	-11.474	-3.222	0.406
109	1	2	0.013245033112582781	-10.253	-4.113	1.858
110	1	1	0.013245033112582781	-9.359	-4.067	2.677
111	1	15	0.013245033112582781	-10.869	-5.221	1.558
112	1	16	0.013245033112582781	-10.372	-5.932	1.996
113	1	3	0.013245033112582781	-12.033	-2.423	2.347
114	1	5	0.013245033112582781	-12.505	-3.305	2.789
115	1	5	0.013245033112582781	-11.554	-1.877	3.163
116	1	3	0.013245033112582781	-13.138	-1.563	1.694
117	1	5	0.013245033112582781	-12.72	-0.615	1.349
118	1	5	0.013245033112582781	-13.524	-2.095	0.821
119	1	3	0.013245033112582781	-14.301	-1.289	2.673
120	1	4	0.013245033112582781	-14.596	-2.214	3.177
121	1	4	0.013245033112582781	-13.988	-0.563	3.43
122	1	7	0.013245033112582781	-15.471	-0.755	1.925
123	1	8	0.013245033112582781	-16.349	-0.532	1.292
124	1	11	0.013245033112582781	-16.919	-0.84	0.4
125	1	10	0.013245033112582781	-16.446	-1.754	0.488
126	1	10	0.013245033112582781	-17.924	-1.01	0.576
127	1	9	0.013245033112582781	-16.845	0.366	1.697
128	1	10	0.013245033112582781	-16.144	1.079	1.9
129	1	10	0.013245033112582781	-17.708	0.709	2.121
130	1	1	0.013245033112582781	-11.054	-1.063	-0.844
131	1	3	0.013245033112582781	-9.755	1.441	-0.002
132	1	5	0.013245033112582781	-10.485	1.569	-0.806
133	1	5	0.013245033112582781	-10.319	1.444	0.934
134	1	13	0.013245033112582781	-8.79	2.614	-0.007
135	1	13	0.013245033112582781	-8.584	3.35	-1.176
136	1	14	0.013245033112582781	-9.11	3.086	-2.091
137	1	13	0.013245033112582781	-7.704	4.43	-1.178
138	1	14	0.013245033112582781	-7.546	5.001	-2.09
139	1	13	0.013245033112582781	-7.026	4.778	-0.012
140	1	14	0.013245033112582781	-6.34	5.622	-0.013
141	1	13	0.013245033112582781	-7.226	4.045	1.156
142	1	14	0.013245033112582781	-6.696	4.316	2.065
143	1	13	0.013245033112582781	-8.106	2.964	1.158
144	1	14	0.013245033112582781	-8.255	2.396	2.074
145	1	1	0.013245033112582781	-7.28	-1.982	-1.097
146	1	1	0.013245033112582781	-4.719	0.233	-1.293
147	1	1	0.013245033112582781	-0.279	0.095	-3.097
148	1	1	0.013245033112582781	2.363	0.837	0.812
149	1	1	0.013245033112582781	6.485	2.293	-1.334
150	1	10	0.013245033112582781	-16.841	-0.568	-0.597
151	1	10	0.013245033112582781	17.898	-4.64	2.852


Bonds

1	1	1	2
2	2	2	3
3	3	2	39
4	4	3	4
5	5	3	5
6	6	3	14
7	7	5	6
8	7	5	7
9	5	5	8
10	7	8	9
11	7	8	10
12	5	8	11
13	4	11	12
14	4	11	13
15	6	11	14
16	3	14	15
17	2	15	16
18	1	15	38
19	4	16	17
20	5	16	18
21	8	16	35
22	7	18	19
23	7	18	20
24	5	18	21
25	7	21	22
26	7	21	23
27	5	21	24
28	4	24	25
29	4	24	26
30	9	24	27
31	10	27	28
32	11	28	29
33	12	28	32
34	13	29	30
35	13	29	31
36	14	32	33
37	14	32	34
38	14	32	151
39	15	35	36
40	15	35	37
41	6	39	40
42	6	39	49
43	4	40	41
44	4	40	42
45	5	40	43
46	7	43	44
47	7	43	45
48	5	43	46
49	7	46	47
50	7	46	48
51	5	46	49
52	4	49	50
53	2	49	51
54	3	51	52
55	1	51	149
56	16	52	53
57	6	52	54
58	4	54	55
59	4	54	56
60	2	54	57
61	3	57	58
62	1	57	148
63	16	58	59
64	6	58	60
65	4	60	61
66	5	60	62
67	2	60	76
68	7	62	63
69	7	62	64
70	17	62	65
71	18	65	66
72	18	65	74
73	19	66	67
74	18	66	68
75	19	68	69
76	18	68	70
77	19	70	71
78	18	70	72
79	19	72	73
80	18	72	74
81	19	74	75
82	3	76	77
83	1	76	147
84	16	77	78
85	6	77	79
86	4	79	80
87	5	79	81
88	2	79	86
89	4	81	82
90	4	81	83
91	20	81	84
92	21	84	85
93	3	86	87
94	1	86	146
95	6	87	88
96	6	87	97
97	4	88	89
98	4	88	90
99	5	88	91
100	7	91	92
101	7	91	93
102	5	91	94
103	7	94	95
104	7	94	96
105	5	94	97
106	4	97	98
107	2	97	99
108	3	99	100
109	1	99	145
110	16	100	101
111	6	100	102
112	4	102	103
113	2	102	104
114	5	102	131
115	3	104	105
116	1	104	130
117	16	105	106
118	6	105	107
119	4	107	108
120	2	107	109
121	5	107	113
122	1	109	110
123	22	109	111
124	21	111	112
125	7	113	114
126	7	113	115
127	5	113	116
128	7	116	117
129	7	116	118
130	5	116	119
131	4	119	120
132	4	119	121
133	9	119	122
134	10	122	123
135	12	123	124
136	11	123	127
137	14	124	125
138	14	124	126
139	14	124	150
140	13	127	128
141	13	127	129
142	7	131	132
143	7	131	133
144	17	131	134
145	18	134	135
146	18	134	143
147	19	135	136
148	18	135	137
149	19	137	138
150	18	137	139
151	19	139	140
152	18	139	141
153	19	141	142
154	18	141	143
155	19	143	144


Angles

1	1	3	2	1
2	2	39	2	1
3	3	39	2	3
4	4	4	3	2
5	5	5	3	2
6	6	5	3	4
7	7	14	3	2
8	8	14	3	4
9	9	14	3	5
10	10	6	5	3
11	10	7	5	3
12	11	7	5	6
13	12	8	5	3
14	10	8	5	6
15	10	8	5	7
16	10	9	8	5
17	10	10	8	5
18	11	10	8	9
19	12	11	8	5
20	10	11	8	9
21	10	11	8	10
22	6	12	11	8
23	6	13	11	8
24	13	13	11	12
25	14	11	14	3
26	9	14	11	8
27	8	14	11	12
28	8	14	11	13
29	15	15	14	3
30	15	15	14	11
31	3	16	15	14
32	2	38	15	14
33	1	38	15	16
34	4	17	16	15
35	5	18	16	15
36	6	18	16	17
37	16	35	16	15
38	17	35	16	17
39	18	35	16	18
40	10	19	18	16
41	10	20	18	16
42	11	20	18	19
43	12	21	18	16
44	10	21	18	19
45	10	21	18	20
46	10	22	21	18
47	10	23	21	18
48	11	23	21	22
49	12	24	21	18
50	10	24	21	22
51	10	24	21	23
52	6	25	24	21
53	6	26	24	21
54	13	26	24	25
55	19	27	24	21
56	20	27	24	25
57	20	27	24	26
58	21	28	27	24
59	22	29	28	27
60	23	32	28	27
61	24	32	28	29
62	25	30	29	28
63	25	31	29	28
64	26	31	29	30
65	27	33	32	28
66	27	34	32	28
67	28	34	32	33
68	27	151	32	28
69	28	151	32	33
70	28	151	32	34
71	29	36	35	16
72	29	37	35	16
73	30	37	35	36
74	15	40	39	2
75	15	49	39	2
76	14	49	39	40
77	8	41	40	39
78	8	42	40	39
79	13	42	40	41
80	9	43	40	39
81	6	43	40	41
82	6	43	40	42
83	10	44	43	40
84	10	45	43	40
85	11	45	43	44
86	12	46	43	40
87	10	46	43	44
88	10	46	43	45
89	10	47	46	43
90	10	48	46	43
91	11	48	46	47
92	9	46	49	39
93	12	49	46	43
94	10	49	46	47
95	10	49	46	48
96	8	50	49	39
97	6	50	49	46
98	7	51	49	39
99	5	51	49	46
100	4	51	49	50
101	3	52	51	49
102	1	149	51	49
103	2	149	51	52
104	31	53	52	51
105	15	54	52	51
106	32	54	52	53
107	8	55	54	52
108	8	56	54	52
109	13	56	54	55
110	7	57	54	52
111	4	57	54	55
112	4	57	54	56
113	3	58	57	54
114	1	148	57	54
115	2	148	57	58
116	31	59	58	57
117	15	60	58	57
118	32	60	58	59
119	8	61	60	58
120	9	62	60	58
121	6	62	60	61
122	7	76	60	58
123	4	76	60	61
124	5	76	60	62
125	10	63	62	60
126	10	64	62	60
127	11	64	62	63
128	33	65	62	60
129	34	65	62	63
130	34	65	62	64
131	35	66	65	62
132	35	74	65	62
133	36	74	65	66
134	37	67	66	65
135	36	68	66	65
136	37	68	66	67
137	37	69	68	66
138	36	70	68	66
139	37	70	68	69
140	37	71	70	68
141	36	72	70	68
142	37	72	70	71
143	37	73	72	70
144	36	72	74	65
145	36	74	72	70
146	37	74	72	73
147	37	75	74	65
148	37	75	74	72
149	3	77	76	60
150	1	147	76	60
151	2	147	76	77
152	31	78	77	76
153	15	79	77	76
154	32	79	77	78
155	8	80	79	77
156	9	81	79	77
157	6	81	79	80
158	7	86	79	77
159	4	86	79	80
160	5	86	79	81
161	6	82	81	79
162	6	83	81	79
163	13	83	81	82
164	38	84	81	79
165	39	84	81	82
166	39	84	81	83
167	40	85	84	81
168	3	87	86	79
169	1	146	86	79
170	2	146	86	87
171	15	88	87	86
172	15	97	87	86
173	14	97	87	88
174	8	89	88	87
175	8	90	88	87
176	13	90	88	89
177	9	91	88	87
178	6	91	88	89
179	6	91	88	90
180	10	92	91	88
181	10	93	91	88
182	11	93	91	92
183	12	94	91	88
184	10	94	91	92
185	10	94	91	93
186	10	95	94	91
187	10	96	94	91
188	11	96	94	95
189	9	94	97	87
190	12	97	94	91
191	10	97	94	95
192	10	97	94	96
193	8	98	97	87
194	6	98	97	94
195	7	99	97	87
196	5	99	97	94
197	4	99	97	98
198	3	100	99	97
199	1	145	99	97
200	2	145	99	100
201	31	101	100	99
202	15	102	100	99
203	32	102	100	101
204	8	103	102	100
205	7	104	102	100
206	4	104	102	103
207	9	131	102	100
208	6	131	102	103
209	5	131	102	104
210	3	105	104	102
211	1	130	104	102
212	2	130	104	105
213	31	106	105	104
214	15	107	105	104
215	32	107	105	106
216	8	108	107	105
217	7	109	107	105
218	4	109	107	108
219	9	113	107	105
220	6	113	107	108
221	5	113	107	109
222	1	110	109	107
223	41	111	109	107
224	42	111	109	110
225	43	112	111	109
226	10	114	113	107
227	10	115	113	107
228	11	115	113	114
229	12	116	113	107
230	10	116	113	114
231	10	116	113	115
232	10	117	116	113
233	10	118	116	113
234	11	118	116	117
235	12	119	116	113
236	10	119	116	117
237	10	119	116	118
238	6	120	119	116
239	6	121	119	116
240	13	121	119	120
241	19	122	119	116
242	20	122	119	120
243	20	122	119	121
244	21	123	122	119
245	23	124	123	122
246	22	127	123	122
247	24	127	123	124
248	27	125	124	123
249	27	126	124	123
250	28	126	124	125
251	27	150	124	123
252	28	150	124	125
253	28	150	124	126
254	25	128	127	123
255	25	129	127	123
256	26	129	127	128
257	10	132	131	102
258	10	133	131	102
259	11	133	131	132
260	33	134	131	102
261	34	134	131	132
262	34	134	131	133
263	35	135	134	131
264	35	143	134	131
265	36	143	134	135
266	37	136	135	134
267	36	137	135	134
268	37	137	135	136
269	37	138	137	135
270	36	139	137	135
271	37	139	137	138
272	37	140	139	137
273	36	141	139	137
274	37	141	139	140
275	37	142	141	139
276	36	141	143	134
277	36	143	141	139
278	37	143	141	142
279	37	144	143	134
280	37	144	143	141


Dihedrals

1	1	4	3	2	1
2	2	4	3	2	39
3	3	5	3	2	1
4	5	5	3	2	39
5	2	14	3	2	1
6	6	14	3	2	39
7	7	6	5	3	2
8	7	6	5	3	4
9	7	6	5	3	14
10	7	7	5	3	2
11	7	7	5	3	4
12	7	7	5	3	14
13	8	8	5	3	2
14	7	8	5	3	4
15	9	8	5	3	14
16	10	9	8	5	3
17	12	9	8	5	6
18	12	9	8	5	7
19	10	10	8	5	3
20	12	10	8	5	6
21	12	10	8	5	7
22	13	11	8	5	3
23	10	11	8	5	6
24	10	11	8	5	7
25	7	12	11	8	5
26	7	12	11	8	9
27	7	12	11	8	10
28	7	13	11	8	5
29	7	13	11	8	9
30	7	13	11	8	10
31	14	11	14	3	2
32	14	11	14	3	4
33	14	11	14	3	5
34	9	14	11	8	5
35	7	14	11	8	9
36	7	14	11	8	10
37	14	8	11	14	3
38	14	12	11	14	3
39	14	13	11	14	3
40	15	15	14	3	2
41	16	15	14	3	4
42	17	15	14	3	5
43	17	15	14	11	8
44	16	15	14	11	12
45	16	15	14	11	13
46	19	16	15	14	3
47	19	16	15	14	11
48	20	38	15	14	3
49	20	38	15	14	11
50	2	17	16	15	14
51	1	17	16	15	38
52	5	18	16	15	14
53	3	18	16	15	38
54	2	35	16	15	14
55	2	35	16	15	38
56	7	19	18	16	15
57	7	19	18	16	17
58	21	19	18	16	35
59	7	20	18	16	15
60	7	20	18	16	17
61	21	20	18	16	35
62	8	21	18	16	15
63	7	21	18	16	17
64	22	21	18	16	35
65	10	22	21	18	16
66	12	22	21	18	19
67	12	22	21	18	20
68	10	23	21	18	16
69	12	23	21	18	19
70	12	23	21	18	20
71	13	24	21	18	16
72	10	24	21	18	19
73	10	24	21	18	20
74	7	25	24	21	18
75	7	25	24	21	22
76	7	25	24	21	23
77	7	26	24	21	18
78	7	26	24	21	22
79	7	26	24	21	23
80	7	27	24	21	18
81	7	27	24	21	22
82	7	27	24	21	23
83	23	28	27	24	21
84	24	28	27	24	25
85	24	28	27	24	26
86	25	29	28	27	24
87	25	32	28	27	24
88	26	30	29	28	27
89	26	30	29	28	32
90	26	31	29	28	27
91	26	31	29	28	32
92	27	33	32	28	27
93	27	33	32	28	29
94	27	34	32	28	27
95	27	34	32	28	29
96	27	151	32	28	27
97	27	151	32	28	29
98	28	36	35	16	15
99	28	36	35	16	17
100	29	36	35	16	18
101	28	37	35	16	15
102	28	37	35	16	17
103	29	37	35	16	18
104	20	40	39	2	1
105	19	40	39	2	3
106	20	49	39	2	1
107	19	49	39	2	3
108	16	41	40	39	2
109	14	41	40	39	49
110	16	42	40	39	2
111	14	42	40	39	49
112	17	43	40	39	2
113	14	43	40	39	49
114	7	44	43	40	39
115	7	44	43	40	41
116	7	44	43	40	42
117	7	45	43	40	39
118	7	45	43	40	41
119	7	45	43	40	42
120	9	46	43	40	39
121	7	46	43	40	41
122	7	46	43	40	42
123	10	47	46	43	40
124	12	47	46	43	44
125	12	47	46	43	45
126	10	48	46	43	40
127	12	48	46	43	44
128	12	48	46	43	45
129	17	46	49	39	2
130	14	46	49	39	40
131	13	49	46	43	40
132	10	49	46	43	44
133	10	49	46	43	45
134	9	43	46	49	39
135	7	47	46	49	39
136	7	48	46	49	39
137	16	50	49	39	2
138	14	50	49	39	40
139	7	50	49	46	43
140	7	50	49	46	47
141	7	50	49	46	48
142	15	51	49	39	2
143	14	51	49	39	40
144	8	51	49	46	43
145	7	51	49	46	47
146	7	51	49	46	48
147	6	52	51	49	39
148	5	52	51	49	46
149	2	52	51	49	50
150	2	149	51	49	39
151	3	149	51	49	46
152	1	149	51	49	50
153	20	53	52	51	49
154	30	53	52	51	149
155	19	54	52	51	49
156	20	54	52	51	149
157	16	55	54	52	51
158	14	55	54	52	53
159	16	56	54	52	51
160	14	56	54	52	53
161	15	57	54	52	51
162	14	57	54	52	53
163	6	58	57	54	52
164	2	58	57	54	55
165	2	58	57	54	56
166	2	148	57	54	52
167	1	148	57	54	55
168	1	148	57	54	56
169	20	59	58	57	54
170	30	59	58	57	148
171	19	60	58	57	54
172	20	60	58	57	148
173	16	61	60	58	57
174	14	61	60	58	59
175	17	62	60	58	57
176	14	62	60	58	59
177	15	76	60	58	57
178	14	76	60	58	59
179	7	63	62	60	58
180	7	63	62	60	61
181	7	63	62	60	76
182	7	64	62	60	58
183	7	64	62	60	61
184	7	64	62	60	76
185	31	65	62	60	58
186	7	65	62	60	61
187	32	65	62	60	76
188	33	66	65	62	60
189	34	66	65	62	63
190	34	66	65	62	64
191	33	74	65	62	60
192	34	74	65	62	63
193	34	74	65	62	64
194	35	67	66	65	62
195	35	67	66	65	74
196	35	68	66	65	62
197	35	68	66	65	74
198	35	69	68	66	65
199	35	69	68	66	67
200	35	70	68	66	65
201	35	70	68	66	67
202	35	71	70	68	66
203	35	71	70	68	69
204	35	72	70	68	66
205	35	72	70	68	69
206	35	73	72	70	68
207	35	73	72	70	71
208	35	72	74	65	62
209	35	72	74	65	66
210	35	74	72	70	68
211	35	74	72	70	71
212	35	70	72	74	65
213	35	73	72	74	65
214	35	75	74	65	62
215	35	75	74	65	66
216	35	75	74	72	70
217	35	75	74	72	73
218	6	77	76	60	58
219	2	77	76	60	61
220	5	77	76	60	62
221	2	147	76	60	58
222	1	147	76	60	61
223	3	147	76	60	62
224	20	78	77	76	60
225	30	78	77	76	147
226	19	79	77	76	60
227	20	79	77	76	147
228	16	80	79	77	76
229	14	80	79	77	78
230	17	81	79	77	76
231	14	81	79	77	78
232	15	86	79	77	76
233	14	86	79	77	78
234	7	82	81	79	77
235	7	82	81	79	80
236	7	82	81	79	86
237	7	83	81	79	77
238	7	83	81	79	80
239	7	83	81	79	86
240	36	84	81	79	77
241	37	84	81	79	80
242	38	84	81	79	86
243	39	85	84	81	79
244	40	85	84	81	82
245	40	85	84	81	83
246	6	87	86	79	77
247	2	87	86	79	80
248	5	87	86	79	81
249	2	146	86	79	77
250	1	146	86	79	80
251	3	146	86	79	81
252	19	88	87	86	79
253	20	88	87	86	146
254	19	97	87	86	79
255	20	97	87	86	146
256	16	89	88	87	86
257	14	89	88	87	97
258	16	90	88	87	86
259	14	90	88	87	97
260	17	91	88	87	86
261	14	91	88	87	97
262	7	92	91	88	87
263	7	92	91	88	89
264	7	92	91	88	90
265	7	93	91	88	87
266	7	93	91	88	89
267	7	93	91	88	90
268	9	94	91	88	87
269	7	94	91	88	89
270	7	94	91	88	90
271	10	95	94	91	88
272	12	95	94	91	92
273	12	95	94	91	93
274	10	96	94	91	88
275	12	96	94	91	92
276	12	96	94	91	93
277	17	94	97	87	86
278	14	94	97	87	88
279	13	97	94	91	88
280	10	97	94	91	92
281	10	97	94	91	93
282	9	91	94	97	87
283	7	95	94	97	87
284	7	96	94	97	87
285	16	98	97	87	86
286	14	98	97	87	88
287	7	98	97	94	91
288	7	98	97	94	95
289	7	98	97	94	96
290	15	99	97	87	86
291	14	99	97	87	88
292	8	99	97	94	91
293	7	99	97	94	95
294	7	99	97	94	96
295	6	100	99	97	87
296	5	100	99	97	94
297	2	100	99	97	98
298	2	145	99	97	87
299	3	145	99	97	94
300	1	145	99	97	98
301	20	101	100	99	97
302	30	101	100	99	145
303	19	102	100	99	97
304	20	102	100	99	145
305	16	103	102	100	99
306	14	103	102	100	101
307	15	104	102	100	99
308	14	104	102	100	101
309	17	131	102	100	99
310	14	131	102	100	101
311	6	105	104	102	100
312	2	105	104	102	103
313	5	105	104	102	131
314	2	130	104	102	100
315	1	130	104	102	103
316	3	130	104	102	131
317	20	106	105	104	102
318	30	106	105	104	130
319	19	107	105	104	102
320	20	107	105	104	130
321	16	108	107	105	104
322	14	108	107	105	106
323	15	109	107	105	104
324	14	109	107	105	106
325	17	113	107	105	104
326	14	113	107	105	106
327	2	110	109	107	105
328	1	110	109	107	108
329	3	110	109	107	113
330	2	111	109	107	105
331	2	111	109	107	108
332	2	111	109	107	113
333	41	112	111	109	107
334	42	112	111	109	110
335	7	114	113	107	105
336	7	114	113	107	108
337	7	114	113	107	109
338	7	115	113	107	105
339	7	115	113	107	108
340	7	115	113	107	109
341	9	116	113	107	105
342	7	116	113	107	108
343	8	116	113	107	109
344	10	117	116	113	107
345	12	117	116	113	114
346	12	117	116	113	115
347	10	118	116	113	107
348	12	118	116	113	114
349	12	118	116	113	115
350	13	119	116	113	107
351	10	119	116	113	114
352	10	119	116	113	115
353	7	120	119	116	113
354	7	120	119	116	117
355	7	120	119	116	118
356	7	121	119	116	113
357	7	121	119	116	117
358	7	121	119	116	118
359	7	122	119	116	113
360	7	122	119	116	117
361	7	122	119	116	118
362	23	123	122	119	116
363	24	123	122	119	120
364	24	123	122	119	121
365	25	124	123	122	119
366	25	127	123	122	119
367	27	125	124	123	122
368	27	125	124	123	127
369	27	126	124	123	122
370	27	126	124	123	127
371	27	150	124	123	122
372	27	150	124	123	127
373	26	128	127	123	122
374	26	128	127	123	124
375	26	129	127	123	122
376	26	129	127	123	124
377	7	132	131	102	100
378	7	132	131	102	103
379	7	132	131	102	104
380	7	133	131	102	100
381	7	133	131	102	103
382	7	133	131	102	104
383	31	134	131	102	100
384	7	134	131	102	103
385	32	134	131	102	104
386	33	135	134	131	102
387	34	135	134	131	132
388	34	135	134	131	133
389	33	143	134	131	102
390	34	143	134	131	132
391	34	143	134	131	133
392	35	136	135	134	131
393	35	136	135	134	143
394	35	137	135	134	131
395	35	137	135	134	143
396	35	138	137	135	134
397	35	138	137	135	136
398	35	139	137	135	134
399	35	139	137	135	136
400	35	140	139	137	135
401	35	140	139	137	138
402	35	141	139	137	135
403	35	141	139	137	138
404	35	142	141	139	137
405	35	142	141	139	140
406	35	141	143	134	131
407	35	141	143	134	135
408	35	143	141	139	137
409	35	143	141	139	140
410	35	139	141	143	134
411	35	142	141	143	134
412	35	144	143	134	131
413	35	144	143	134	135
414	35	144	143	141	139
415	35	144	143	141	142
