LAMMPS (23 Jun 2022)

# Initialization
units		real
atom_style	full
boundary	p p p
pair_style	lj/cut/coul/cut	100.0

bond_style      harmonic
angle_style     harmonic
dihedral_style	fourier
read_data	bradykinin+2.lam
Reading data file ...
  orthogonal box = (-300 -300 -300) to (300 300 300)
  1 by 1 by 2 MPI processor grid
  reading atoms ...
  151 atoms
  scanning bonds ...
  3 = max bonds/atom
  scanning angles ...
  6 = max angles/atom
  scanning dihedrals ...
  12 = max dihedrals/atom
  reading bonds ...
  155 bonds
  reading angles ...
  280 angles
  reading dihedrals ...
  415 dihedrals
Finding 1-2 1-3 1-4 neighbors ...
  special bond factors lj:    0        0        0       
  special bond factors coul:  0        0        0       
     4 = max # of 1-2 neighbors
     8 = max # of 1-3 neighbors
    19 = max # of 1-4 neighbors
    20 = max # of special neighbors
  special bonds CPU = 0.000 seconds
  read_data CPU = 0.002 seconds

pair_coeff	1	2	0.12022661934862845	3.181666592095
pair_coeff	1	3	0.1255831995133107	3.222915202745
pair_coeff	1	4	0.05516375621728455	2.735059064695
pair_coeff	1	5	0.05516375621728455	2.824148936505
pair_coeff	1	6	0.15470837081425168	3.11449282875
pair_coeff	1	7	0.11733213541055154	3.2161443724899996
pair_coeff	1	8	0.12022661934862845	3.181666592095
pair_coeff	1	9	0.17735416544304788	3.11903641221
pair_coeff	1	10	0.038249182997810556	2.07730854109
pair_coeff	1	11	0.7529164893930801	2.77381315893
pair_coeff	1	12	0.11203811851329885	3.206611756205
pair_coeff	1	13	0.12022661934862845	3.181666592095
pair_coeff	1	14	0.04853277243265627	2.8367996983049997
pair_coeff	1	15	0.11664433119530498	3.1454961041400002
pair_coeff	1	16	0.026222318738052135	1.7930227601315
pair_coeff	2	3	0.10320193796629984	3.35646092059
pair_coeff	2	4	0.045332549012823	2.8686047825400003
pair_coeff	2	5	0.045332549012823	2.95769465435
pair_coeff	2	6	0.12713646211846544	3.248038546595
pair_coeff	2	7	0.09642136692663095	3.3496900903349998
pair_coeff	2	8	0.0988	3.31521230994
pair_coeff	2	9	0.14574635501445654	3.252582130055
pair_coeff	2	10	0.03143246729100342	2.210854258935
pair_coeff	2	11	0.6187327694570572	2.907358876775
pair_coeff	2	12	0.09207084229005402	3.34015747405
pair_coeff	2	13	0.0988	3.31521230994
pair_coeff	2	14	0.03988332985095402	2.97034541615
pair_coeff	2	15	0.09585614221321448	3.2790418219850004
pair_coeff	2	16	0.021549013898552297	1.9265684779765002
pair_coeff	3	4	0.04735229667080573	2.9098533931899997
pair_coeff	3	5	0.04735229667080573	2.998943265
pair_coeff	3	6	0.1328009036113836	3.289287157245
pair_coeff	3	7	0.10071732720838059	3.390938700985
pair_coeff	3	8	0.10320193796629984	3.35646092059
pair_coeff	3	9	0.15223994219652082	3.2938307407050003
pair_coeff	3	10	0.03283291031876401	2.252102869585
pair_coeff	3	11	0.6462998065913373	2.948607487425
pair_coeff	3	12	0.09617296917533534	3.3814060847
pair_coeff	3	13	0.10320193796629984	3.35646092059
pair_coeff	3	14	0.04166029284582623	3.0115940268
pair_coeff	3	15	0.10012691945725685	3.320290432635
pair_coeff	3	16	0.02250910926713894	1.9678170886265
pair_coeff	4	5	0.0208	2.5110871269499997
pair_coeff	4	6	0.05833420951722925	2.8014310191950003
pair_coeff	4	7	0.0442411573085515	2.903082562935
pair_coeff	4	8	0.045332549012823	2.8686047825400003
pair_coeff	4	9	0.06687301398920195	2.805974602655
pair_coeff	4	10	0.014422205101855956	1.7642467315350001
pair_coeff	4	11	0.2838940647495118	2.460751349375
pair_coeff	4	12	0.04224499970410699	2.8935499466500003
pair_coeff	4	13	0.045332549012823	2.8686047825400003
pair_coeff	4	14	0.018299726773916596	2.52373788875
pair_coeff	4	15	0.04398181442369107	2.832434294585
pair_coeff	4	16	0.009887365675446621	1.4799609505765
pair_coeff	5	6	0.05833420951722925	2.890520891005
pair_coeff	5	7	0.0442411573085515	2.992172434745
pair_coeff	5	8	0.045332549012823	2.95769465435
pair_coeff	5	9	0.06687301398920195	2.8950644744650003
pair_coeff	5	10	0.014422205101855956	1.8533366033449998
pair_coeff	5	11	0.2838940647495118	2.549841221185
pair_coeff	5	12	0.04224499970410699	2.98263981846
pair_coeff	5	13	0.045332549012823	2.95769465435
pair_coeff	5	14	0.018299726773916596	2.61282776056
pair_coeff	5	15	0.04398181442369107	2.921524166395
pair_coeff	5	16	0.009887365675446621	1.5690508223865
pair_coeff	6	7	0.1240756221020068	3.2825163269899997
pair_coeff	6	8	0.12713646211846544	3.248038546595
pair_coeff	6	9	0.18754732736032256	3.18540836671
pair_coeff	6	10	0.04044749683231337	2.14368049559
pair_coeff	6	11	0.7961892237401861	2.84018511343
pair_coeff	6	12	0.11847733960551275	3.272983710705
pair_coeff	6	13	0.12713646211846544	3.248038546595
pair_coeff	6	14	0.051322119987389454	2.903171652805
pair_coeff	6	15	0.12334828738170628	3.2118680586400004
pair_coeff	6	16	0.02772940677331558	1.8593947146315002
pair_coeff	7	8	0.09642136692663095	3.3496900903349998
pair_coeff	7	9	0.14223747748044466	3.28705991045
pair_coeff	7	10	0.030675723300355937	2.24533203933
pair_coeff	7	11	0.6038366335359259	2.9418366571699996
pair_coeff	7	12	0.08985421526005333	3.374635254445
pair_coeff	7	13	0.09642136692663095	3.3496900903349998
pair_coeff	7	14	0.038923129370594035	3.004823196545
pair_coeff	7	15	0.09354838320355943	3.31351960238
pair_coeff	7	16	0.021030216356471468	1.9610462583714998
pair_coeff	8	9	0.14574635501445654	3.252582130055
pair_coeff	8	10	0.03143246729100342	2.210854258935
pair_coeff	8	11	0.6187327694570572	2.907358876775
pair_coeff	8	12	0.09207084229005402	3.34015747405
pair_coeff	8	13	0.0988	3.31521230994
pair_coeff	8	14	0.03988332985095402	2.97034541615
pair_coeff	8	15	0.09585614221321448	3.2790418219850004
pair_coeff	8	16	0.021549013898552297	1.9265684779765002
pair_coeff	9	10	0.04636809247747852	2.1482240790500002
pair_coeff	9	11	0.9127332578579571	2.84472869689
pair_coeff	9	12	0.13581973347050863	3.277527294165
pair_coeff	9	13	0.14574635501445654	3.252582130055
pair_coeff	9	14	0.058834513680322026	2.907715236265
pair_coeff	9	15	0.14140367746278737	3.2164116421
pair_coeff	9	16	0.031788362650504665	1.8639382980915
pair_coeff	10	11	0.19684511677966512	1.8030008257699999
pair_coeff	10	12	0.02929163703175362	2.235799423045
pair_coeff	10	13	0.03143246729100342	2.210854258935
pair_coeff	10	14	0.012688577540449521	1.865987365145
pair_coeff	10	15	0.030495901363953814	2.17468377098
pair_coeff	10	16	0.006855654600401044	0.8222104269715
pair_coeff	11	12	0.5765915712183105	2.932304040885
pair_coeff	11	13	0.6187327694570572	2.907358876775
pair_coeff	11	14	0.24976845277176218	2.5624919829849997
pair_coeff	11	15	0.6002969265288637	2.8711883888200003
pair_coeff	11	16	0.1349502130416992	1.5187150448115
pair_coeff	12	13	0.09207084229005402	3.34015747405
pair_coeff	12	14	0.037166920776410844	2.99529058026
pair_coeff	12	15	0.08932748737090952	3.3039869860950004
pair_coeff	12	16	0.020081334617001928	1.9515136420865002
pair_coeff	13	14	0.03988332985095402	2.97034541615
pair_coeff	13	15	0.09585614221321448	3.2790418219850004
pair_coeff	13	16	0.021549013898552297	1.9265684779765002
pair_coeff	14	15	0.03869496091224282	2.934174928195
pair_coeff	14	16	0.008698850498772812	1.5817015841864999
pair_coeff	15	16	0.02090693664791664	1.8903979900215

dump            1 all custom 1000000 a.dump id type xs ys zs ix iy iz q
velocity 	all create 1000 123
fix	1 all nvt temp 300 300 100 tchain 3
fix 2 all qeq/dynamic 1 10 1.0e-3 100 param.qeq

thermo_style	multi
thermo          100000
timestep	1
run		100000000
Generated 0 of 120 mixed pair_coeff terms from geometric mixing rule
WARNING: Fix qeq/dynamic group is not charge neutral, net charge = 2 (../fix_qeq.cpp:323)
Neighbor list info ...
  update every 1 steps, delay 10 steps, check yes
  max neighbors/atom: 2000, page size: 100000
  master list distance cutoff = 102
  ghost atom cutoff = 102
  binsize = 51, bins = 12 12 12
  2 neighbor lists, perpetual/occasional/extra = 2 0 0
  (1) pair lj/cut/coul/cut, perpetual
      attributes: half, newton on
      pair build: half/bin/newton
      stencil: half/bin/3d
      bin: standard
  (2) fix qeq/dynamic, perpetual, copy from (1)
      attributes: half, newton on
      pair build: copy
      stencil: none
      bin: none
Per MPI rank memory allocation (min/avg/max) = 17.16 | 17.18 | 17.21 Mbytes
------------ Step              0 ----- CPU =            0 (sec) -------------
TotEng   =       953.0652 KinEng   =       447.1215 Temp     =      1000.0000 
PotEng   =       505.9437 E_bond   =       166.6021 E_angle  =       295.7598 
E_dihed  =        91.4472 E_impro  =         0.0000 E_vdwl   =       -24.4828 
E_coul   =       -23.3826 E_long   =         0.0000 Press    =         0.2504
------------ Step         100000 ----- CPU =     11.72839 (sec) -------------
TotEng   =       254.8469 KinEng   =       133.4983 Temp     =       298.5727 
PotEng   =       121.3486 E_bond   =        42.5595 E_angle  =        84.5427 
E_dihed  =        84.7914 E_impro  =         0.0000 E_vdwl   =       -21.1249 
E_coul   =       -69.4202 E_long   =         0.0000 Press    =        -0.0408
------------ Step         200000 ----- CPU =     23.30417 (sec) -------------
TotEng   =       281.6429 KinEng   =       158.2414 Temp     =       353.9114 
PotEng   =       123.4015 E_bond   =        51.1090 E_angle  =        80.8998 
E_dihed  =        87.2064 E_impro  =         0.0000 E_vdwl   =       -19.4722 
E_coul   =       -76.3415 E_long   =         0.0000 Press    =        -0.0495
------------ Step         300000 ----- CPU =     34.69206 (sec) -------------
TotEng   =       252.2635 KinEng   =       142.8520 Temp     =       319.4926 
PotEng   =       109.4115 E_bond   =        40.4445 E_angle  =        87.1220 
E_dihed  =        87.7807 E_impro  =         0.0000 E_vdwl   =       -33.7577 
E_coul   =       -72.1781 E_long   =         0.0000 Press    =        -0.0487
------------ Step         400000 ----- CPU =     47.19191 (sec) -------------
TotEng   =       222.6963 KinEng   =       118.3849 Temp     =       264.7712 
PotEng   =       104.3114 E_bond   =        43.9250 E_angle  =        81.3957 
E_dihed  =        84.2256 E_impro  =         0.0000 E_vdwl   =       -28.8129 
E_coul   =       -76.4219 E_long   =         0.0000 Press    =        -0.0619
------------ Step         500000 ----- CPU =     58.82791 (sec) -------------
TotEng   =       238.9843 KinEng   =       127.4355 Temp     =       285.0131 
PotEng   =       111.5488 E_bond   =        42.7814 E_angle  =        81.5552 
E_dihed  =        87.3845 E_impro  =         0.0000 E_vdwl   =       -28.0172 
E_coul   =       -72.1551 E_long   =         0.0000 Press    =         0.0049
------------ Step         600000 ----- CPU =     70.85998 (sec) -------------
TotEng   =       258.8938 KinEng   =       135.9717 Temp     =       304.1045 
PotEng   =       122.9221 E_bond   =        52.5003 E_angle  =        81.2976 
E_dihed  =        81.3307 E_impro  =         0.0000 E_vdwl   =       -25.3483 
E_coul   =       -66.8582 E_long   =         0.0000 Press    =         0.0061
------------ Step         700000 ----- CPU =     82.29509 (sec) -------------
TotEng   =       254.6153 KinEng   =       132.8424 Temp     =       297.1058 
PotEng   =       121.7729 E_bond   =        48.4180 E_angle  =        86.4445 
E_dihed  =        82.3759 E_impro  =         0.0000 E_vdwl   =       -21.6442 
E_coul   =       -73.8214 E_long   =         0.0000 Press    =         0.0553
------------ Step         800000 ----- CPU =     93.75265 (sec) -------------
TotEng   =       279.2570 KinEng   =       147.2411 Temp     =       329.3089 
PotEng   =       132.0159 E_bond   =        48.1369 E_angle  =        85.8001 
E_dihed  =        91.5694 E_impro  =         0.0000 E_vdwl   =       -20.8593 
E_coul   =       -72.6312 E_long   =         0.0000 Press    =        -0.0361
------------ Step         900000 ----- CPU =     105.2426 (sec) -------------
TotEng   =       253.5342 KinEng   =       123.7369 Temp     =       276.7410 
PotEng   =       129.7973 E_bond   =        57.0966 E_angle  =        83.5192 
E_dihed  =        84.7785 E_impro  =         0.0000 E_vdwl   =       -23.5616 
E_coul   =       -72.0355 E_long   =         0.0000 Press    =         0.0261
------------ Step        1000000 ----- CPU =     116.5993 (sec) -------------
TotEng   =       249.7109 KinEng   =       131.6728 Temp     =       294.4900 
PotEng   =       118.0381 E_bond   =        47.6519 E_angle  =        78.6473 
E_dihed  =        78.2627 E_impro  =         0.0000 E_vdwl   =       -20.2109 
E_coul   =       -66.3130 E_long   =         0.0000 Press    =        -0.0223
------------ Step        1100000 ----- CPU =     128.6201 (sec) -------------
TotEng   =       245.8775 KinEng   =       129.5427 Temp     =       289.7259 
PotEng   =       116.3348 E_bond   =        46.0646 E_angle  =        82.5916 
E_dihed  =        92.3373 E_impro  =         0.0000 E_vdwl   =       -38.5843 
E_coul   =       -66.0744 E_long   =         0.0000 Press    =        -0.0599
------------ Step        1200000 ----- CPU =     140.9441 (sec) -------------
TotEng   =       244.7257 KinEng   =       134.6926 Temp     =       301.2439 
PotEng   =       110.0331 E_bond   =        46.9297 E_angle  =        74.8896 
E_dihed  =        95.9604 E_impro  =         0.0000 E_vdwl   =       -37.5881 
E_coul   =       -70.1584 E_long   =         0.0000 Press    =        -0.0089
------------ Step        1300000 ----- CPU =     153.5582 (sec) -------------
TotEng   =       245.7507 KinEng   =       138.0979 Temp     =       308.8598 
PotEng   =       107.6529 E_bond   =        49.0579 E_angle  =        79.0010 
E_dihed  =        88.4663 E_impro  =         0.0000 E_vdwl   =       -37.2537 
E_coul   =       -71.6187 E_long   =         0.0000 Press    =        -0.0771
------------ Step        1400000 ----- CPU =     165.3185 (sec) -------------
TotEng   =       233.9640 KinEng   =       135.0993 Temp     =       302.1535 
PotEng   =        98.8647 E_bond   =        45.4776 E_angle  =        79.5270 
E_dihed  =        91.3694 E_impro  =         0.0000 E_vdwl   =       -40.1915 
E_coul   =       -77.3177 E_long   =         0.0000 Press    =        -0.0946
------------ Step        1500000 ----- CPU =     176.9095 (sec) -------------
TotEng   =       231.0757 KinEng   =       131.5494 Temp     =       294.2140 
PotEng   =        99.5262 E_bond   =        38.0369 E_angle  =        91.2425 
E_dihed  =        81.1006 E_impro  =         0.0000 E_vdwl   =       -36.9935 
E_coul   =       -73.8601 E_long   =         0.0000 Press    =         0.0105
------------ Step        1600000 ----- CPU =     188.6881 (sec) -------------
TotEng   =       242.4353 KinEng   =       139.7432 Temp     =       312.5397 
PotEng   =       102.6921 E_bond   =        50.2204 E_angle  =        69.4819 
E_dihed  =        91.2457 E_impro  =         0.0000 E_vdwl   =       -34.4392 
E_coul   =       -73.8168 E_long   =         0.0000 Press    =        -0.0072
------------ Step        1700000 ----- CPU =      199.855 (sec) -------------
TotEng   =       228.7969 KinEng   =       138.3696 Temp     =       309.4675 
PotEng   =        90.4273 E_bond   =        47.5939 E_angle  =        65.3941 
E_dihed  =        88.5914 E_impro  =         0.0000 E_vdwl   =       -39.8957 
E_coul   =       -71.2565 E_long   =         0.0000 Press    =        -0.0519
------------ Step        1800000 ----- CPU =     211.0987 (sec) -------------
TotEng   =       213.1157 KinEng   =       131.5088 Temp     =       294.1232 
PotEng   =        81.6069 E_bond   =        34.2204 E_angle  =        76.6330 
E_dihed  =        82.8298 E_impro  =         0.0000 E_vdwl   =       -35.8541 
E_coul   =       -76.2223 E_long   =         0.0000 Press    =         0.0658
------------ Step        1900000 ----- CPU =     222.2183 (sec) -------------
TotEng   =       226.8875 KinEng   =       145.2716 Temp     =       324.9040 
PotEng   =        81.6160 E_bond   =        41.8076 E_angle  =        62.4143 
E_dihed  =        80.7597 E_impro  =         0.0000 E_vdwl   =       -33.8484 
E_coul   =       -69.5173 E_long   =         0.0000 Press    =         0.0097
------------ Step        2000000 ----- CPU =     233.8041 (sec) -------------
TotEng   =       212.4299 KinEng   =       131.1504 Temp     =       293.3215 
PotEng   =        81.2795 E_bond   =        36.0838 E_angle  =        63.6075 
E_dihed  =        87.3787 E_impro  =         0.0000 E_vdwl   =       -37.9982 
E_coul   =       -67.7922 E_long   =         0.0000 Press    =         0.0068
------------ Step        2100000 ----- CPU =     245.1918 (sec) -------------
TotEng   =       219.5285 KinEng   =       143.0234 Temp     =       319.8759 
PotEng   =        76.5052 E_bond   =        30.7073 E_angle  =        61.2170 
E_dihed  =        80.0360 E_impro  =         0.0000 E_vdwl   =       -32.0217 
E_coul   =       -63.4335 E_long   =         0.0000 Press    =        -0.0635
------------ Step        2200000 ----- CPU =     256.1062 (sec) -------------
TotEng   =       185.2501 KinEng   =       123.2871 Temp     =       275.7352 
PotEng   =        61.9629 E_bond   =        22.2398 E_angle  =        59.6322 
E_dihed  =        79.5262 E_impro  =         0.0000 E_vdwl   =       -32.8316 
E_coul   =       -66.6035 E_long   =         0.0000 Press    =         0.0053
------------ Step        2300000 ----- CPU =     266.9497 (sec) -------------
TotEng   =       192.4442 KinEng   =       145.0530 Temp     =       324.4152 
PotEng   =        47.3911 E_bond   =        18.6303 E_angle  =        51.0479 
E_dihed  =        77.3826 E_impro  =         0.0000 E_vdwl   =       -34.2527 
E_coul   =       -65.4170 E_long   =         0.0000 Press    =        -0.0156
------------ Step        2400000 ----- CPU =     277.6064 (sec) -------------
TotEng   =       169.1577 KinEng   =       130.7785 Temp     =       292.4898 
PotEng   =        38.3792 E_bond   =        21.7526 E_angle  =        43.0556 
E_dihed  =        78.4432 E_impro  =         0.0000 E_vdwl   =       -36.0899 
E_coul   =       -68.7823 E_long   =         0.0000 Press    =         0.0077
------------ Step        2500000 ----- CPU =     287.9103 (sec) -------------
TotEng   =       166.6407 KinEng   =       138.5913 Temp     =       309.9634 
PotEng   =        28.0494 E_bond   =        13.3257 E_angle  =        41.4973 
E_dihed  =        71.0547 E_impro  =         0.0000 E_vdwl   =       -31.1016 
E_coul   =       -66.7267 E_long   =         0.0000 Press    =         0.0145
------------ Step        2600000 ----- CPU =     297.9219 (sec) -------------
TotEng   =       154.5904 KinEng   =       139.1283 Temp     =       311.1644 
PotEng   =        15.4621 E_bond   =        11.4391 E_angle  =        33.4509 
E_dihed  =        69.6697 E_impro  =         0.0000 E_vdwl   =       -33.4129 
E_coul   =       -65.6847 E_long   =         0.0000 Press    =         0.0001
------------ Step        2700000 ----- CPU =     307.6867 (sec) -------------
TotEng   =       143.6848 KinEng   =       135.9195 Temp     =       303.9877 
PotEng   =         7.7654 E_bond   =         7.0108 E_angle  =        30.4820 
E_dihed  =        71.3190 E_impro  =         0.0000 E_vdwl   =       -34.3443 
E_coul   =       -66.7022 E_long   =         0.0000 Press    =        -0.0098
------------ Step        2800000 ----- CPU =       317.13 (sec) -------------
TotEng   =       133.7123 KinEng   =       131.6798 Temp     =       294.5057 
PotEng   =         2.0325 E_bond   =         6.4736 E_angle  =        27.7537 
E_dihed  =        69.9347 E_impro  =         0.0000 E_vdwl   =       -32.9916 
E_coul   =       -69.1379 E_long   =         0.0000 Press    =         0.0184
------------ Step        2900000 ----- CPU =     326.6743 (sec) -------------
TotEng   =       127.4501 KinEng   =       129.3513 Temp     =       289.2979 
PotEng   =        -1.9012 E_bond   =         5.4128 E_angle  =        27.0417 
E_dihed  =        68.3600 E_impro  =         0.0000 E_vdwl   =       -33.8733 
E_coul   =       -68.8424 E_long   =         0.0000 Press    =         0.0115
------------ Step        3000000 ----- CPU =     335.5788 (sec) -------------
TotEng   =       115.8174 KinEng   =       119.7182 Temp     =       267.7532 
PotEng   =        -3.9009 E_bond   =         4.7249 E_angle  =        24.6407 
E_dihed  =        68.2027 E_impro  =         0.0000 E_vdwl   =       -33.4633 
E_coul   =       -68.0058 E_long   =         0.0000 Press    =         0.0061
------------ Step        3100000 ----- CPU =     344.9075 (sec) -------------
TotEng   =       116.0440 KinEng   =       122.1834 Temp     =       273.2666 
PotEng   =        -6.1394 E_bond   =         3.7220 E_angle  =        24.6047 
E_dihed  =        68.3108 E_impro  =         0.0000 E_vdwl   =       -33.8703 
E_coul   =       -68.9066 E_long   =         0.0000 Press    =         0.0016
------------ Step        3200000 ----- CPU =     354.1684 (sec) -------------
TotEng   =       116.7614 KinEng   =       121.8611 Temp     =       272.5458 
PotEng   =        -5.0996 E_bond   =         3.6189 E_angle  =        24.5184 
E_dihed  =        67.6361 E_impro  =         0.0000 E_vdwl   =       -33.6589 
E_coul   =       -67.2142 E_long   =         0.0000 Press    =         0.0014
------------ Step        3300000 ----- CPU =     362.8323 (sec) -------------
TotEng   =       138.9575 KinEng   =       144.7303 Temp     =       323.6935 
PotEng   =        -5.7729 E_bond   =         3.6780 E_angle  =        23.7836 
E_dihed  =        68.8512 E_impro  =         0.0000 E_vdwl   =       -34.2414 
E_coul   =       -67.8444 E_long   =         0.0000 Press    =        -0.0016
------------ Step        3400000 ----- CPU =     371.5986 (sec) -------------
TotEng   =       124.5962 KinEng   =       131.5341 Temp     =       294.1798 
PotEng   =        -6.9379 E_bond   =         2.8651 E_angle  =        23.1161 
E_dihed  =        67.9977 E_impro  =         0.0000 E_vdwl   =       -34.4589 
E_coul   =       -66.4580 E_long   =         0.0000 Press    =        -0.0025
------------ Step        3500000 ----- CPU =     380.2652 (sec) -------------
TotEng   =       130.1628 KinEng   =       137.8835 Temp     =       308.3804 
PotEng   =        -7.7207 E_bond   =         3.0355 E_angle  =        22.5899 
E_dihed  =        68.8853 E_impro  =         0.0000 E_vdwl   =       -34.2114 
E_coul   =       -68.0199 E_long   =         0.0000 Press    =         0.0020
------------ Step        3600000 ----- CPU =     388.9771 (sec) -------------
TotEng   =       140.1225 KinEng   =       146.0362 Temp     =       326.6140 
PotEng   =        -5.9137 E_bond   =         3.1771 E_angle  =        24.0463 
E_dihed  =        68.1903 E_impro  =         0.0000 E_vdwl   =       -32.9851 
E_coul   =       -68.3424 E_long   =         0.0000 Press    =         0.0055
------------ Step        3700000 ----- CPU =     397.7898 (sec) -------------
TotEng   =       110.7002 KinEng   =       117.0329 Temp     =       261.7473 
PotEng   =        -6.3327 E_bond   =         2.9500 E_angle  =        25.6756 
E_dihed  =        66.9167 E_impro  =         0.0000 E_vdwl   =       -33.8447 
E_coul   =       -68.0304 E_long   =         0.0000 Press    =        -0.0040
------------ Step        3800000 ----- CPU =     406.4242 (sec) -------------
TotEng   =       135.2533 KinEng   =       144.2971 Temp     =       322.7246 
PotEng   =        -9.0438 E_bond   =         2.7314 E_angle  =        23.6935 
E_dihed  =        67.3940 E_impro  =         0.0000 E_vdwl   =       -34.1830 
E_coul   =       -68.6798 E_long   =         0.0000 Press    =         0.0132
------------ Step        3900000 ----- CPU =     415.0247 (sec) -------------
TotEng   =       127.7459 KinEng   =       132.3608 Temp     =       296.0287 
PotEng   =        -4.6149 E_bond   =         3.0498 E_angle  =        25.2825 
E_dihed  =        68.7309 E_impro  =         0.0000 E_vdwl   =       -33.5082 
E_coul   =       -68.1698 E_long   =         0.0000 Press    =        -0.0039
------------ Step        4000000 ----- CPU =     423.6838 (sec) -------------
TotEng   =       124.8507 KinEng   =       129.9650 Temp     =       290.6703 
PotEng   =        -5.1142 E_bond   =         2.9987 E_angle  =        24.7405 
E_dihed  =        68.3272 E_impro  =         0.0000 E_vdwl   =       -33.1890 
E_coul   =       -67.9916 E_long   =         0.0000 Press    =        -0.0028
------------ Step        4100000 ----- CPU =     432.3936 (sec) -------------
TotEng   =       129.2505 KinEng   =       137.1190 Temp     =       306.6706 
PotEng   =        -7.8686 E_bond   =         1.7961 E_angle  =        23.7329 
E_dihed  =        69.2985 E_impro  =         0.0000 E_vdwl   =       -34.6625 
E_coul   =       -68.0336 E_long   =         0.0000 Press    =         0.0067
------------ Step        4200000 ----- CPU =     441.0883 (sec) -------------
TotEng   =       120.9785 KinEng   =       128.2833 Temp     =       286.9092 
PotEng   =        -7.3048 E_bond   =         2.6080 E_angle  =        23.5961 
E_dihed  =        69.2292 E_impro  =         0.0000 E_vdwl   =       -34.8225 
E_coul   =       -67.9155 E_long   =         0.0000 Press    =         0.0095
------------ Step        4300000 ----- CPU =     449.7067 (sec) -------------
TotEng   =       138.4600 KinEng   =       145.9752 Temp     =       326.4776 
PotEng   =        -7.5151 E_bond   =         2.4232 E_angle  =        24.6650 
E_dihed  =        67.8420 E_impro  =         0.0000 E_vdwl   =       -33.9782 
E_coul   =       -68.4672 E_long   =         0.0000 Press    =         0.0024
------------ Step        4400000 ----- CPU =     458.3975 (sec) -------------
TotEng   =       132.7952 KinEng   =       141.1572 Temp     =       315.7021 
PotEng   =        -8.3620 E_bond   =         1.8483 E_angle  =        25.2006 
E_dihed  =        67.8906 E_impro  =         0.0000 E_vdwl   =       -34.0532 
E_coul   =       -69.2483 E_long   =         0.0000 Press    =         0.0044
------------ Step        4500000 ----- CPU =     467.0239 (sec) -------------
TotEng   =       129.6338 KinEng   =       137.3591 Temp     =       307.2075 
PotEng   =        -7.7253 E_bond   =         2.3630 E_angle  =        25.3654 
E_dihed  =        66.4314 E_impro  =         0.0000 E_vdwl   =       -33.5018 
E_coul   =       -68.3833 E_long   =         0.0000 Press    =         0.0042
------------ Step        4600000 ----- CPU =     475.6092 (sec) -------------
TotEng   =       124.9649 KinEng   =       132.6998 Temp     =       296.7868 
PotEng   =        -7.7349 E_bond   =         2.6811 E_angle  =        23.4559 
E_dihed  =        68.7822 E_impro  =         0.0000 E_vdwl   =       -33.6439 
E_coul   =       -69.0101 E_long   =         0.0000 Press    =        -0.0010
------------ Step        4700000 ----- CPU =     484.2608 (sec) -------------
TotEng   =       137.9421 KinEng   =       144.5020 Temp     =       323.1829 
PotEng   =        -6.5599 E_bond   =         2.7365 E_angle  =        24.0211 
E_dihed  =        68.4077 E_impro  =         0.0000 E_vdwl   =       -33.0289 
E_coul   =       -68.6963 E_long   =         0.0000 Press    =        -0.0081
------------ Step        4800000 ----- CPU =     492.8571 (sec) -------------
TotEng   =       126.3283 KinEng   =       134.5602 Temp     =       300.9477 
PotEng   =        -8.2319 E_bond   =         2.0910 E_angle  =        24.6011 
E_dihed  =        67.6797 E_impro  =         0.0000 E_vdwl   =       -33.2955 
E_coul   =       -69.3081 E_long   =         0.0000 Press    =         0.0054
------------ Step        4900000 ----- CPU =     501.5207 (sec) -------------
TotEng   =       103.9750 KinEng   =       113.3441 Temp     =       253.4973 
PotEng   =        -9.3691 E_bond   =         1.9815 E_angle  =        22.4780 
E_dihed  =        69.6109 E_impro  =         0.0000 E_vdwl   =       -34.1503 
E_coul   =       -69.2892 E_long   =         0.0000 Press    =         0.0043
------------ Step        5000000 ----- CPU =     510.1418 (sec) -------------
TotEng   =       123.4557 KinEng   =       130.8493 Temp     =       292.6481 
PotEng   =        -7.3936 E_bond   =         2.4588 E_angle  =        23.5006 
E_dihed  =        67.7116 E_impro  =         0.0000 E_vdwl   =       -32.9775 
E_coul   =       -68.0870 E_long   =         0.0000 Press    =         0.0065
------------ Step        5100000 ----- CPU =     518.7331 (sec) -------------
TotEng   =       139.5011 KinEng   =       145.9614 Temp     =       326.4467 
PotEng   =        -6.4602 E_bond   =         2.5375 E_angle  =        24.6592 
E_dihed  =        67.6055 E_impro  =         0.0000 E_vdwl   =       -32.1261 
E_coul   =       -69.1364 E_long   =         0.0000 Press    =         0.0044
------------ Step        5200000 ----- CPU =     527.3912 (sec) -------------
TotEng   =       121.8179 KinEng   =       129.3756 Temp     =       289.3523 
PotEng   =        -7.5577 E_bond   =         1.8277 E_angle  =        24.1903 
E_dihed  =        69.1914 E_impro  =         0.0000 E_vdwl   =       -32.8918 
E_coul   =       -69.8754 E_long   =         0.0000 Press    =         0.0036
------------ Step        5300000 ----- CPU =     536.0409 (sec) -------------
TotEng   =       119.7526 KinEng   =       127.3792 Temp     =       284.8872 
PotEng   =        -7.6266 E_bond   =         2.0672 E_angle  =        24.6215 
E_dihed  =        66.9331 E_impro  =         0.0000 E_vdwl   =       -33.6179 
E_coul   =       -67.6304 E_long   =         0.0000 Press    =        -0.0030
------------ Step        5400000 ----- CPU =     544.6867 (sec) -------------
TotEng   =       133.6317 KinEng   =       141.0308 Temp     =       315.4195 
PotEng   =        -7.3992 E_bond   =         2.2279 E_angle  =        24.0953 
E_dihed  =        67.6226 E_impro  =         0.0000 E_vdwl   =       -33.9369 
E_coul   =       -67.4081 E_long   =         0.0000 Press    =        -0.0022
------------ Step        5500000 ----- CPU =     553.3272 (sec) -------------
TotEng   =       121.2843 KinEng   =       130.1568 Temp     =       291.0994 
PotEng   =        -8.8725 E_bond   =         1.8686 E_angle  =        23.0697 
E_dihed  =        68.0921 E_impro  =         0.0000 E_vdwl   =       -34.4722 
E_coul   =       -67.4308 E_long   =         0.0000 Press    =        -0.0024
------------ Step        5600000 ----- CPU =     561.9543 (sec) -------------
TotEng   =       129.2193 KinEng   =       134.7718 Temp     =       301.4210 
PotEng   =        -5.5525 E_bond   =         2.1635 E_angle  =        24.2047 
E_dihed  =        68.5603 E_impro  =         0.0000 E_vdwl   =       -33.3863 
E_coul   =       -67.0947 E_long   =         0.0000 Press    =         0.0005
------------ Step        5700000 ----- CPU =     570.5436 (sec) -------------
TotEng   =       132.5103 KinEng   =       140.0892 Temp     =       313.3136 
PotEng   =        -7.5790 E_bond   =         2.3313 E_angle  =        25.1971 
E_dihed  =        67.4212 E_impro  =         0.0000 E_vdwl   =       -33.5380 
E_coul   =       -68.9906 E_long   =         0.0000 Press    =        -0.0047
------------ Step        5800000 ----- CPU =     579.0983 (sec) -------------
TotEng   =       121.0708 KinEng   =       129.8016 Temp     =       290.3050 
PotEng   =        -8.7308 E_bond   =         1.7196 E_angle  =        24.1079 
E_dihed  =        69.0341 E_impro  =         0.0000 E_vdwl   =       -33.5226 
E_coul   =       -70.0699 E_long   =         0.0000 Press    =         0.0003
------------ Step        5900000 ----- CPU =     587.6819 (sec) -------------
TotEng   =       125.7598 KinEng   =       134.6181 Temp     =       301.0773 
PotEng   =        -8.8583 E_bond   =         1.8356 E_angle  =        23.1779 
E_dihed  =        68.3622 E_impro  =         0.0000 E_vdwl   =       -34.1526 
E_coul   =       -68.0815 E_long   =         0.0000 Press    =        -0.0005
------------ Step        6000000 ----- CPU =     596.2491 (sec) -------------
TotEng   =       130.8583 KinEng   =       138.2055 Temp     =       309.1006 
PotEng   =        -7.3472 E_bond   =         2.5378 E_angle  =        24.2003 
E_dihed  =        67.7940 E_impro  =         0.0000 E_vdwl   =       -33.4945 
E_coul   =       -68.3848 E_long   =         0.0000 Press    =         0.0000
------------ Step        6100000 ----- CPU =     604.8604 (sec) -------------
TotEng   =       129.7070 KinEng   =       138.1367 Temp     =       308.9467 
PotEng   =        -8.4297 E_bond   =         2.3015 E_angle  =        24.9893 
E_dihed  =        67.3661 E_impro  =         0.0000 E_vdwl   =       -33.4597 
E_coul   =       -69.6270 E_long   =         0.0000 Press    =         0.0049
------------ Step        6200000 ----- CPU =     613.5109 (sec) -------------
TotEng   =       122.1261 KinEng   =       131.3258 Temp     =       293.7140 
PotEng   =        -9.1997 E_bond   =         1.6819 E_angle  =        22.6650 
E_dihed  =        68.1701 E_impro  =         0.0000 E_vdwl   =       -34.5567 
E_coul   =       -67.1600 E_long   =         0.0000 Press    =         0.0028
------------ Step        6300000 ----- CPU =     622.1124 (sec) -------------
TotEng   =       120.1589 KinEng   =       127.8371 Temp     =       285.9114 
PotEng   =        -7.6782 E_bond   =         2.0978 E_angle  =        24.7390 
E_dihed  =        67.6253 E_impro  =         0.0000 E_vdwl   =       -33.8835 
E_coul   =       -68.2568 E_long   =         0.0000 Press    =        -0.0056
------------ Step        6400000 ----- CPU =      630.686 (sec) -------------
TotEng   =       122.5502 KinEng   =       128.2238 Temp     =       286.7762 
PotEng   =        -5.6736 E_bond   =         2.1454 E_angle  =        26.1311 
E_dihed  =        67.6741 E_impro  =         0.0000 E_vdwl   =       -32.4670 
E_coul   =       -69.1572 E_long   =         0.0000 Press    =         0.0059
------------ Step        6500000 ----- CPU =     639.3084 (sec) -------------
TotEng   =       132.0954 KinEng   =       140.7976 Temp     =       314.8979 
PotEng   =        -8.7022 E_bond   =         1.7553 E_angle  =        24.0898 
E_dihed  =        67.1982 E_impro  =         0.0000 E_vdwl   =       -33.4830 
E_coul   =       -68.2625 E_long   =         0.0000 Press    =         0.0028
------------ Step        6600000 ----- CPU =     647.9141 (sec) -------------
TotEng   =       120.2201 KinEng   =       128.4016 Temp     =       287.1739 
PotEng   =        -8.1815 E_bond   =         2.1224 E_angle  =        23.8184 
E_dihed  =        67.3883 E_impro  =         0.0000 E_vdwl   =       -34.5815 
E_coul   =       -66.9291 E_long   =         0.0000 Press    =        -0.0047
------------ Step        6700000 ----- CPU =     656.5275 (sec) -------------
TotEng   =       124.7090 KinEng   =       132.5884 Temp     =       296.5376 
PotEng   =        -7.8794 E_bond   =         2.1800 E_angle  =        23.2971 
E_dihed  =        68.5088 E_impro  =         0.0000 E_vdwl   =       -33.5465 
E_coul   =       -68.3189 E_long   =         0.0000 Press    =         0.0021
------------ Step        6800000 ----- CPU =      665.056 (sec) -------------
TotEng   =       119.7986 KinEng   =       125.8990 Temp     =       281.5767 
PotEng   =        -6.1004 E_bond   =         2.4257 E_angle  =        25.7481 
E_dihed  =        68.1136 E_impro  =         0.0000 E_vdwl   =       -33.3245 
E_coul   =       -69.0633 E_long   =         0.0000 Press    =        -0.0091
------------ Step        6900000 ----- CPU =     673.6392 (sec) -------------
TotEng   =       126.2713 KinEng   =       133.7120 Temp     =       299.0508 
PotEng   =        -7.4407 E_bond   =         2.4103 E_angle  =        25.4388 
E_dihed  =        68.2305 E_impro  =         0.0000 E_vdwl   =       -33.4902 
E_coul   =       -70.0300 E_long   =         0.0000 Press    =        -0.0030
------------ Step        7000000 ----- CPU =     682.2984 (sec) -------------
TotEng   =       124.1184 KinEng   =       133.9208 Temp     =       299.5176 
PotEng   =        -9.8023 E_bond   =         1.9599 E_angle  =        23.0060 
E_dihed  =        67.7334 E_impro  =         0.0000 E_vdwl   =       -33.2589 
E_coul   =       -69.2426 E_long   =         0.0000 Press    =         0.0030
------------ Step        7100000 ----- CPU =     690.9306 (sec) -------------
TotEng   =       140.3540 KinEng   =       146.9537 Temp     =       328.6662 
PotEng   =        -6.5997 E_bond   =         1.9794 E_angle  =        25.6434 
E_dihed  =        67.0470 E_impro  =         0.0000 E_vdwl   =       -33.5380 
E_coul   =       -67.7315 E_long   =         0.0000 Press    =         0.0019
------------ Step        7200000 ----- CPU =     699.5455 (sec) -------------
TotEng   =       135.1322 KinEng   =       142.1623 Temp     =       317.9501 
PotEng   =        -7.0301 E_bond   =         1.9914 E_angle  =        24.3164 
E_dihed  =        67.7731 E_impro  =         0.0000 E_vdwl   =       -33.5980 
E_coul   =       -67.5130 E_long   =         0.0000 Press    =         0.0009
------------ Step        7300000 ----- CPU =     708.1852 (sec) -------------
TotEng   =       123.8973 KinEng   =       130.7345 Temp     =       292.3914 
PotEng   =        -6.8372 E_bond   =         2.4783 E_angle  =        24.5940 
E_dihed  =        67.9998 E_impro  =         0.0000 E_vdwl   =       -33.3555 
E_coul   =       -68.5539 E_long   =         0.0000 Press    =        -0.0112
------------ Step        7400000 ----- CPU =     716.8369 (sec) -------------
TotEng   =       114.3763 KinEng   =       121.8514 Temp     =       272.5241 
PotEng   =        -7.4751 E_bond   =         2.0716 E_angle  =        23.8976 
E_dihed  =        68.9152 E_impro  =         0.0000 E_vdwl   =       -34.2548 
E_coul   =       -68.1046 E_long   =         0.0000 Press    =        -0.0060
------------ Step        7500000 ----- CPU =     725.4284 (sec) -------------
TotEng   =       129.3602 KinEng   =       138.2377 Temp     =       309.1727 
PotEng   =        -8.8775 E_bond   =         1.4361 E_angle  =        23.9797 
E_dihed  =        67.4530 E_impro  =         0.0000 E_vdwl   =       -33.4954 
E_coul   =       -68.2509 E_long   =         0.0000 Press    =         0.0062
------------ Step        7600000 ----- CPU =     734.0036 (sec) -------------
TotEng   =       133.2626 KinEng   =       140.7689 Temp     =       314.8336 
PotEng   =        -7.5063 E_bond   =         2.3792 E_angle  =        23.4160 
E_dihed  =        69.0286 E_impro  =         0.0000 E_vdwl   =       -33.6894 
E_coul   =       -68.6407 E_long   =         0.0000 Press    =         0.0009
------------ Step        7700000 ----- CPU =     742.5454 (sec) -------------
TotEng   =       131.4346 KinEng   =       139.8645 Temp     =       312.8109 
PotEng   =        -8.4299 E_bond   =         1.8936 E_angle  =        22.9573 
E_dihed  =        67.7060 E_impro  =         0.0000 E_vdwl   =       -34.1856 
E_coul   =       -66.8012 E_long   =         0.0000 Press    =         0.0020
------------ Step        7800000 ----- CPU =     751.1451 (sec) -------------
TotEng   =       118.3591 KinEng   =       125.6574 Temp     =       281.0363 
PotEng   =        -7.2983 E_bond   =         1.9935 E_angle  =        23.9296 
E_dihed  =        67.8648 E_impro  =         0.0000 E_vdwl   =       -33.3134 
E_coul   =       -67.7727 E_long   =         0.0000 Press    =        -0.0053
------------ Step        7900000 ----- CPU =     759.7777 (sec) -------------
TotEng   =       134.7315 KinEng   =       142.4984 Temp     =       318.7016 
PotEng   =        -7.7668 E_bond   =         1.8763 E_angle  =        25.2265 
E_dihed  =        67.4153 E_impro  =         0.0000 E_vdwl   =       -33.7894 
E_coul   =       -68.4956 E_long   =         0.0000 Press    =         0.0019
------------ Step        8000000 ----- CPU =     768.4432 (sec) -------------
TotEng   =       133.6528 KinEng   =       141.4581 Temp     =       316.3751 
PotEng   =        -7.8054 E_bond   =         2.0546 E_angle  =        24.3272 
E_dihed  =        67.7141 E_impro  =         0.0000 E_vdwl   =       -33.2804 
E_coul   =       -68.6208 E_long   =         0.0000 Press    =         0.0022
------------ Step        8100000 ----- CPU =     777.0453 (sec) -------------
TotEng   =       133.4989 KinEng   =       140.6720 Temp     =       314.6170 
PotEng   =        -7.1731 E_bond   =         2.2115 E_angle  =        24.1868 
E_dihed  =        68.3587 E_impro  =         0.0000 E_vdwl   =       -34.0056 
E_coul   =       -67.9246 E_long   =         0.0000 Press    =        -0.0001
------------ Step        8200000 ----- CPU =     785.6752 (sec) -------------
TotEng   =       112.5657 KinEng   =       121.6235 Temp     =       272.0145 
PotEng   =        -9.0579 E_bond   =         1.6041 E_angle  =        23.9317 
E_dihed  =        68.6670 E_impro  =         0.0000 E_vdwl   =       -34.5444 
E_coul   =       -68.7162 E_long   =         0.0000 Press    =         0.0033
------------ Step        8300000 ----- CPU =     794.2687 (sec) -------------
TotEng   =       137.7611 KinEng   =       145.7941 Temp     =       326.0726 
PotEng   =        -8.0329 E_bond   =         2.2494 E_angle  =        25.6044 
E_dihed  =        66.7514 E_impro  =         0.0000 E_vdwl   =       -33.5418 
E_coul   =       -69.0964 E_long   =         0.0000 Press    =        -0.0091
------------ Step        8400000 ----- CPU =      802.877 (sec) -------------
TotEng   =       116.6907 KinEng   =       124.7885 Temp     =       279.0930 
PotEng   =        -8.0978 E_bond   =         2.0289 E_angle  =        24.8070 
E_dihed  =        67.5923 E_impro  =         0.0000 E_vdwl   =       -33.7395 
E_coul   =       -68.7864 E_long   =         0.0000 Press    =         0.0002
------------ Step        8500000 ----- CPU =     811.5188 (sec) -------------
TotEng   =       137.3805 KinEng   =       145.8753 Temp     =       326.2544 
PotEng   =        -8.4948 E_bond   =         1.7220 E_angle  =        23.7890 
E_dihed  =        68.5194 E_impro  =         0.0000 E_vdwl   =       -34.0770 
E_coul   =       -68.4483 E_long   =         0.0000 Press    =         0.0063
------------ Step        8600000 ----- CPU =     820.2044 (sec) -------------
TotEng   =       119.9320 KinEng   =       129.0574 Temp     =       288.6405 
PotEng   =        -9.1254 E_bond   =         1.7746 E_angle  =        23.3977 
E_dihed  =        68.0333 E_impro  =         0.0000 E_vdwl   =       -34.3295 
E_coul   =       -68.0015 E_long   =         0.0000 Press    =        -0.0015
------------ Step        8700000 ----- CPU =     828.8145 (sec) -------------
TotEng   =       125.3186 KinEng   =       134.0973 Temp     =       299.9125 
PotEng   =        -8.7787 E_bond   =         1.9809 E_angle  =        23.6713 
E_dihed  =        67.4068 E_impro  =         0.0000 E_vdwl   =       -33.5582 
E_coul   =       -68.2796 E_long   =         0.0000 Press    =         0.0043
------------ Step        8800000 ----- CPU =     837.4073 (sec) -------------
TotEng   =       120.5845 KinEng   =       130.1193 Temp     =       291.0156 
PotEng   =        -9.5348 E_bond   =         1.7079 E_angle  =        23.0817 
E_dihed  =        68.1808 E_impro  =         0.0000 E_vdwl   =       -34.1072 
E_coul   =       -68.3979 E_long   =         0.0000 Press    =         0.0026
------------ Step        8900000 ----- CPU =     846.0489 (sec) -------------
TotEng   =       121.9969 KinEng   =       130.4181 Temp     =       291.6839 
PotEng   =        -8.4212 E_bond   =         1.9944 E_angle  =        24.5815 
E_dihed  =        68.6204 E_impro  =         0.0000 E_vdwl   =       -33.7342 
E_coul   =       -69.8833 E_long   =         0.0000 Press    =        -0.0070
------------ Step        9000000 ----- CPU =      854.681 (sec) -------------
TotEng   =       114.5111 KinEng   =       121.1676 Temp     =       270.9947 
PotEng   =        -6.6565 E_bond   =         2.4192 E_angle  =        25.2515 
E_dihed  =        67.7809 E_impro  =         0.0000 E_vdwl   =       -33.0231 
E_coul   =       -69.0850 E_long   =         0.0000 Press    =        -0.0127
------------ Step        9100000 ----- CPU =      863.313 (sec) -------------
TotEng   =       133.1809 KinEng   =       140.3250 Temp     =       313.8409 
PotEng   =        -7.1441 E_bond   =         2.0821 E_angle  =        24.5322 
E_dihed  =        69.0470 E_impro  =         0.0000 E_vdwl   =       -33.1811 
E_coul   =       -69.6244 E_long   =         0.0000 Press    =        -0.0006
------------ Step        9200000 ----- CPU =     871.9425 (sec) -------------
TotEng   =       117.0559 KinEng   =       124.6518 Temp     =       278.7874 
PotEng   =        -7.5959 E_bond   =         2.1850 E_angle  =        24.7056 
E_dihed  =        69.2614 E_impro  =         0.0000 E_vdwl   =       -34.1464 
E_coul   =       -69.6016 E_long   =         0.0000 Press    =        -0.0015
------------ Step        9300000 ----- CPU =     880.5367 (sec) -------------
TotEng   =       130.1259 KinEng   =       138.5184 Temp     =       309.8004 
PotEng   =        -8.3925 E_bond   =         1.8634 E_angle  =        23.8365 
E_dihed  =        67.9798 E_impro  =         0.0000 E_vdwl   =       -33.9115 
E_coul   =       -68.1607 E_long   =         0.0000 Press    =        -0.0003
------------ Step        9400000 ----- CPU =     889.1402 (sec) -------------
TotEng   =       149.1640 KinEng   =       156.6873 Temp     =       350.4356 
PotEng   =        -7.5233 E_bond   =         2.2754 E_angle  =        24.9107 
E_dihed  =        67.5535 E_impro  =         0.0000 E_vdwl   =       -34.1116 
E_coul   =       -68.1513 E_long   =         0.0000 Press    =         0.0076
------------ Step        9500000 ----- CPU =     897.7174 (sec) -------------
TotEng   =       116.9065 KinEng   =       125.1502 Temp     =       279.9019 
PotEng   =        -8.2436 E_bond   =         1.6713 E_angle  =        23.4658 
E_dihed  =        67.7547 E_impro  =         0.0000 E_vdwl   =       -33.3085 
E_coul   =       -67.8269 E_long   =         0.0000 Press    =        -0.0019
------------ Step        9600000 ----- CPU =      906.314 (sec) -------------
TotEng   =       133.4817 KinEng   =       142.0929 Temp     =       317.7948 
PotEng   =        -8.6112 E_bond   =         2.2474 E_angle  =        24.5630 
E_dihed  =        66.7358 E_impro  =         0.0000 E_vdwl   =       -34.0705 
E_coul   =       -68.0870 E_long   =         0.0000 Press    =        -0.0027
------------ Step        9700000 ----- CPU =     914.8865 (sec) -------------
TotEng   =       131.6042 KinEng   =       141.1232 Temp     =       315.6260 
PotEng   =        -9.5190 E_bond   =         1.6649 E_angle  =        23.8737 
E_dihed  =        67.0579 E_impro  =         0.0000 E_vdwl   =       -33.9492 
E_coul   =       -68.1663 E_long   =         0.0000 Press    =         0.0031
------------ Step        9800000 ----- CPU =      923.468 (sec) -------------
TotEng   =       125.7208 KinEng   =       133.8384 Temp     =       299.3335 
PotEng   =        -8.1176 E_bond   =         1.7744 E_angle  =        23.2546 
E_dihed  =        68.5195 E_impro  =         0.0000 E_vdwl   =       -34.5033 
E_coul   =       -67.1628 E_long   =         0.0000 Press    =        -0.0001
------------ Step        9900000 ----- CPU =     932.0169 (sec) -------------
TotEng   =       121.7624 KinEng   =       131.1342 Temp     =       293.2853 
PotEng   =        -9.3717 E_bond   =         1.5020 E_angle  =        24.0096 
E_dihed  =        67.2157 E_impro  =         0.0000 E_vdwl   =       -34.6490 
E_coul   =       -67.4500 E_long   =         0.0000 Press    =         0.0075
------------ Step       10000000 ----- CPU =     940.6549 (sec) -------------
TotEng   =       126.3290 KinEng   =       133.7942 Temp     =       299.2346 
PotEng   =        -7.4653 E_bond   =         2.0421 E_angle  =        24.2589 
E_dihed  =        68.1389 E_impro  =         0.0000 E_vdwl   =       -34.3116 
E_coul   =       -67.5934 E_long   =         0.0000 Press    =        -0.0048
------------ Step       10100000 ----- CPU =     949.3199 (sec) -------------
TotEng   =       114.0194 KinEng   =       120.0247 Temp     =       268.4386 
PotEng   =        -6.0052 E_bond   =         2.4688 E_angle  =        24.8316 
E_dihed  =        67.9642 E_impro  =         0.0000 E_vdwl   =       -32.7794 
E_coul   =       -68.4905 E_long   =         0.0000 Press    =        -0.0061
------------ Step       10200000 ----- CPU =     957.9844 (sec) -------------
TotEng   =       138.8848 KinEng   =       145.3263 Temp     =       325.0263 
PotEng   =        -6.4414 E_bond   =         1.9819 E_angle  =        25.5848 
E_dihed  =        67.0335 E_impro  =         0.0000 E_vdwl   =       -33.2217 
E_coul   =       -67.8199 E_long   =         0.0000 Press    =         0.0047
------------ Step       10300000 ----- CPU =     966.6298 (sec) -------------
TotEng   =       119.4477 KinEng   =       126.7815 Temp     =       283.5505 
PotEng   =        -7.3338 E_bond   =         2.1332 E_angle  =        25.2320 
E_dihed  =        67.8750 E_impro  =         0.0000 E_vdwl   =       -33.9261 
E_coul   =       -68.6480 E_long   =         0.0000 Press    =        -0.0057
------------ Step       10400000 ----- CPU =     975.2422 (sec) -------------
TotEng   =       114.6128 KinEng   =       120.9678 Temp     =       270.5478 
PotEng   =        -6.3549 E_bond   =         2.2211 E_angle  =        25.0664 
E_dihed  =        68.5683 E_impro  =         0.0000 E_vdwl   =       -33.4112 
E_coul   =       -68.7996 E_long   =         0.0000 Press    =        -0.0042
------------ Step       10500000 ----- CPU =     983.8838 (sec) -------------
TotEng   =       107.9220 KinEng   =       114.6818 Temp     =       256.4892 
PotEng   =        -6.7598 E_bond   =         2.3946 E_angle  =        25.5207 
E_dihed  =        66.8256 E_impro  =         0.0000 E_vdwl   =       -33.1781 
E_coul   =       -68.3226 E_long   =         0.0000 Press    =        -0.0091
------------ Step       10600000 ----- CPU =     992.5027 (sec) -------------
TotEng   =       124.8885 KinEng   =       132.5011 Temp     =       296.3424 
PotEng   =        -7.6126 E_bond   =         1.8215 E_angle  =        24.7994 
E_dihed  =        67.1499 E_impro  =         0.0000 E_vdwl   =       -33.3223 
E_coul   =       -68.0612 E_long   =         0.0000 Press    =        -0.0032
------------ Step       10700000 ----- CPU =     1001.184 (sec) -------------
TotEng   =       123.3196 KinEng   =       131.7510 Temp     =       294.6648 
PotEng   =        -8.4314 E_bond   =         1.9975 E_angle  =        24.4050 
E_dihed  =        68.9024 E_impro  =         0.0000 E_vdwl   =       -34.0825 
E_coul   =       -69.6538 E_long   =         0.0000 Press    =        -0.0006
------------ Step       10800000 ----- CPU =     1009.874 (sec) -------------
TotEng   =       131.0419 KinEng   =       138.1730 Temp     =       309.0279 
PotEng   =        -7.1311 E_bond   =         1.8390 E_angle  =        23.3970 
E_dihed  =        69.4308 E_impro  =         0.0000 E_vdwl   =       -34.4665 
E_coul   =       -67.3315 E_long   =         0.0000 Press    =         0.0029
------------ Step       10900000 ----- CPU =      1018.54 (sec) -------------
TotEng   =       129.3552 KinEng   =       136.3574 Temp     =       304.9671 
PotEng   =        -7.0022 E_bond   =         1.8214 E_angle  =        24.0446 
E_dihed  =        68.7169 E_impro  =         0.0000 E_vdwl   =       -34.4194 
E_coul   =       -67.1657 E_long   =         0.0000 Press    =        -0.0069
------------ Step       11000000 ----- CPU =     1027.201 (sec) -------------
TotEng   =       119.1997 KinEng   =       127.3916 Temp     =       284.9148 
PotEng   =        -8.1919 E_bond   =         1.9959 E_angle  =        24.8533 
E_dihed  =        66.5304 E_impro  =         0.0000 E_vdwl   =       -33.7424 
E_coul   =       -67.8290 E_long   =         0.0000 Press    =        -0.0043
------------ Step       11100000 ----- CPU =     1035.826 (sec) -------------
TotEng   =       125.3324 KinEng   =       132.9251 Temp     =       297.2908 
PotEng   =        -7.5927 E_bond   =         1.8122 E_angle  =        23.8675 
E_dihed  =        68.1941 E_impro  =         0.0000 E_vdwl   =       -34.1272 
E_coul   =       -67.3392 E_long   =         0.0000 Press    =         0.0051
------------ Step       11200000 ----- CPU =     1044.422 (sec) -------------
TotEng   =       132.4167 KinEng   =       142.1424 Temp     =       317.9055 
PotEng   =        -9.7257 E_bond   =         1.6153 E_angle  =        23.1236 
E_dihed  =        68.9654 E_impro  =         0.0000 E_vdwl   =       -34.4230 
E_coul   =       -69.0070 E_long   =         0.0000 Press    =         0.0048
------------ Step       11300000 ----- CPU =     1052.974 (sec) -------------
TotEng   =       125.4249 KinEng   =       134.7272 Temp     =       301.3211 
PotEng   =        -9.3023 E_bond   =         1.6425 E_angle  =        24.4433 
E_dihed  =        67.3939 E_impro  =         0.0000 E_vdwl   =       -33.5865 
E_coul   =       -69.1955 E_long   =         0.0000 Press    =         0.0016
------------ Step       11400000 ----- CPU =     1061.541 (sec) -------------
TotEng   =       131.4919 KinEng   =       142.2048 Temp     =       318.0451 
PotEng   =       -10.7129 E_bond   =         1.0902 E_angle  =        23.4619 
E_dihed  =        67.9589 E_impro  =         0.0000 E_vdwl   =       -33.5861 
E_coul   =       -69.6379 E_long   =         0.0000 Press    =         0.0177
------------ Step       11500000 ----- CPU =     1070.147 (sec) -------------
TotEng   =       144.4486 KinEng   =       152.5585 Temp     =       341.2013 
PotEng   =        -8.1099 E_bond   =         2.0344 E_angle  =        23.9248 
E_dihed  =        67.5236 E_impro  =         0.0000 E_vdwl   =       -33.5380 
E_coul   =       -68.0547 E_long   =         0.0000 Press    =        -0.0000
------------ Step       11600000 ----- CPU =     1078.779 (sec) -------------
TotEng   =       132.7667 KinEng   =       139.3221 Temp     =       311.5979 
PotEng   =        -6.5554 E_bond   =         2.2320 E_angle  =        24.6924 
E_dihed  =        68.2830 E_impro  =         0.0000 E_vdwl   =       -34.5855 
E_coul   =       -67.1774 E_long   =         0.0000 Press    =        -0.0006
------------ Step       11700000 ----- CPU =      1087.43 (sec) -------------
TotEng   =       127.3220 KinEng   =       134.5889 Temp     =       301.0119 
PotEng   =        -7.2669 E_bond   =         1.8290 E_angle  =        23.8549 
E_dihed  =        69.0057 E_impro  =         0.0000 E_vdwl   =       -33.3933 
E_coul   =       -68.5633 E_long   =         0.0000 Press    =        -0.0016
------------ Step       11800000 ----- CPU =     1096.099 (sec) -------------
TotEng   =       133.6465 KinEng   =       140.0960 Temp     =       313.3288 
PotEng   =        -6.4496 E_bond   =         2.0663 E_angle  =        25.0646 
E_dihed  =        67.6859 E_impro  =         0.0000 E_vdwl   =       -33.7343 
E_coul   =       -67.5320 E_long   =         0.0000 Press    =        -0.0018
------------ Step       11900000 ----- CPU =     1104.763 (sec) -------------
TotEng   =       119.4236 KinEng   =       126.7714 Temp     =       283.5277 
PotEng   =        -7.3477 E_bond   =         2.0398 E_angle  =        24.1752 
E_dihed  =        68.7215 E_impro  =         0.0000 E_vdwl   =       -33.6208 
E_coul   =       -68.6634 E_long   =         0.0000 Press    =         0.0027
------------ Step       12000000 ----- CPU =     1113.368 (sec) -------------
TotEng   =       131.1846 KinEng   =       138.9028 Temp     =       310.6601 
PotEng   =        -7.7182 E_bond   =         1.9927 E_angle  =        24.1499 
E_dihed  =        67.4672 E_impro  =         0.0000 E_vdwl   =       -33.8323 
E_coul   =       -67.4957 E_long   =         0.0000 Press    =        -0.0007
------------ Step       12100000 ----- CPU =     1121.935 (sec) -------------
TotEng   =       125.3118 KinEng   =       133.7261 Temp     =       299.0822 
PotEng   =        -8.4143 E_bond   =         1.6413 E_angle  =        24.8990 
E_dihed  =        67.6674 E_impro  =         0.0000 E_vdwl   =       -33.4366 
E_coul   =       -69.1853 E_long   =         0.0000 Press    =         0.0022
------------ Step       12200000 ----- CPU =     1130.541 (sec) -------------
TotEng   =       113.9722 KinEng   =       121.5725 Temp     =       271.9004 
PotEng   =        -7.6003 E_bond   =         1.9481 E_angle  =        24.6107 
E_dihed  =        67.6448 E_impro  =         0.0000 E_vdwl   =       -33.4123 
E_coul   =       -68.3917 E_long   =         0.0000 Press    =        -0.0013
------------ Step       12300000 ----- CPU =     1139.119 (sec) -------------
TotEng   =       113.3830 KinEng   =       122.3428 Temp     =       273.6231 
PotEng   =        -8.9598 E_bond   =         1.7837 E_angle  =        23.4285 
E_dihed  =        68.6913 E_impro  =         0.0000 E_vdwl   =       -34.2761 
E_coul   =       -68.5871 E_long   =         0.0000 Press    =        -0.0025
------------ Step       12400000 ----- CPU =     1147.673 (sec) -------------
TotEng   =       136.8630 KinEng   =       146.1468 Temp     =       326.8614 
PotEng   =        -9.2838 E_bond   =         1.6834 E_angle  =        24.0323 
E_dihed  =        67.3251 E_impro  =         0.0000 E_vdwl   =       -33.6540 
E_coul   =       -68.6706 E_long   =         0.0000 Press    =         0.0042
------------ Step       12500000 ----- CPU =     1156.177 (sec) -------------
TotEng   =       132.6948 KinEng   =       142.8547 Temp     =       319.4985 
PotEng   =       -10.1598 E_bond   =         1.4013 E_angle  =        23.4863 
E_dihed  =        68.2156 E_impro  =         0.0000 E_vdwl   =       -34.3072 
E_coul   =       -68.9559 E_long   =         0.0000 Press    =         0.0052
------------ Step       12600000 ----- CPU =     1164.702 (sec) -------------
TotEng   =       134.7979 KinEng   =       143.7387 Temp     =       321.4756 
PotEng   =        -8.9407 E_bond   =         1.4022 E_angle  =        22.7025 
E_dihed  =        68.7111 E_impro  =         0.0000 E_vdwl   =       -34.0014 
E_coul   =       -67.7551 E_long   =         0.0000 Press    =         0.0054
------------ Step       12700000 ----- CPU =     1173.257 (sec) -------------
TotEng   =       130.3445 KinEng   =       140.0979 Temp     =       313.3330 
PotEng   =        -9.7534 E_bond   =         1.4037 E_angle  =        23.6132 
E_dihed  =        68.0813 E_impro  =         0.0000 E_vdwl   =       -34.4664 
E_coul   =       -68.3851 E_long   =         0.0000 Press    =         0.0018
------------ Step       12800000 ----- CPU =     1181.853 (sec) -------------
TotEng   =       130.9603 KinEng   =       137.9337 Temp     =       308.4926 
PotEng   =        -6.9734 E_bond   =         2.3446 E_angle  =        25.7226 
E_dihed  =        66.8232 E_impro  =         0.0000 E_vdwl   =       -33.8920 
E_coul   =       -67.9718 E_long   =         0.0000 Press    =        -0.0018
------------ Step       12900000 ----- CPU =     1190.405 (sec) -------------
TotEng   =       116.2282 KinEng   =       124.2789 Temp     =       277.9534 
PotEng   =        -8.0508 E_bond   =         1.7156 E_angle  =        24.4714 
E_dihed  =        67.8906 E_impro  =         0.0000 E_vdwl   =       -33.3431 
E_coul   =       -68.7854 E_long   =         0.0000 Press    =        -0.0042
------------ Step       13000000 ----- CPU =      1198.98 (sec) -------------
TotEng   =       133.2014 KinEng   =       142.6417 Temp     =       319.0221 
PotEng   =        -9.4403 E_bond   =         1.6351 E_angle  =        23.2115 
E_dihed  =        68.3944 E_impro  =         0.0000 E_vdwl   =       -34.7712 
E_coul   =       -67.9101 E_long   =         0.0000 Press    =         0.0029
------------ Step       13100000 ----- CPU =     1207.613 (sec) -------------
TotEng   =       121.1713 KinEng   =       129.9574 Temp     =       290.6533 
PotEng   =        -8.7861 E_bond   =         1.5278 E_angle  =        24.3551 
E_dihed  =        69.0533 E_impro  =         0.0000 E_vdwl   =       -34.2343 
E_coul   =       -69.4878 E_long   =         0.0000 Press    =         0.0055
------------ Step       13200000 ----- CPU =     1216.268 (sec) -------------
TotEng   =       141.6840 KinEng   =       147.3077 Temp     =       329.4578 
PotEng   =        -5.6237 E_bond   =         2.1557 E_angle  =        25.1393 
E_dihed  =        68.2823 E_impro  =         0.0000 E_vdwl   =       -33.1715 
E_coul   =       -68.0295 E_long   =         0.0000 Press    =         0.0042
------------ Step       13300000 ----- CPU =     1224.938 (sec) -------------
TotEng   =       129.6872 KinEng   =       137.7452 Temp     =       308.0710 
PotEng   =        -8.0580 E_bond   =         2.0465 E_angle  =        25.0432 
E_dihed  =        66.3368 E_impro  =         0.0000 E_vdwl   =       -33.5696 
E_coul   =       -67.9149 E_long   =         0.0000 Press    =        -0.0055
------------ Step       13400000 ----- CPU =      1233.58 (sec) -------------
TotEng   =       135.3801 KinEng   =       143.6228 Temp     =       321.2165 
PotEng   =        -8.2427 E_bond   =         1.7003 E_angle  =        25.3517 
E_dihed  =        67.4817 E_impro  =         0.0000 E_vdwl   =       -33.6742 
E_coul   =       -69.1021 E_long   =         0.0000 Press    =         0.0014
------------ Step       13500000 ----- CPU =     1242.208 (sec) -------------
TotEng   =       110.6107 KinEng   =       118.6334 Temp     =       265.3271 
PotEng   =        -8.0228 E_bond   =         2.1633 E_angle  =        24.6109 
E_dihed  =        67.0668 E_impro  =         0.0000 E_vdwl   =       -33.8144 
E_coul   =       -68.0493 E_long   =         0.0000 Press    =        -0.0062
------------ Step       13600000 ----- CPU =     1250.778 (sec) -------------
TotEng   =       108.2370 KinEng   =       116.4979 Temp     =       260.5510 
PotEng   =        -8.2610 E_bond   =         1.7551 E_angle  =        23.5009 
E_dihed  =        69.7014 E_impro  =         0.0000 E_vdwl   =       -34.4669 
E_coul   =       -68.7515 E_long   =         0.0000 Press    =        -0.0048
------------ Step       13700000 ----- CPU =     1259.415 (sec) -------------
TotEng   =       132.5757 KinEng   =       141.3918 Temp     =       316.2269 
PotEng   =        -8.8161 E_bond   =         2.1441 E_angle  =        23.5862 
E_dihed  =        68.0327 E_impro  =         0.0000 E_vdwl   =       -34.5014 
E_coul   =       -68.0776 E_long   =         0.0000 Press    =         0.0028
------------ Step       13800000 ----- CPU =     1268.074 (sec) -------------
TotEng   =       130.2429 KinEng   =       136.3443 Temp     =       304.9379 
PotEng   =        -6.1014 E_bond   =         2.3010 E_angle  =        23.8238 
E_dihed  =        68.6909 E_impro  =         0.0000 E_vdwl   =       -32.7668 
E_coul   =       -68.1503 E_long   =         0.0000 Press    =        -0.0095
------------ Step       13900000 ----- CPU =     1276.707 (sec) -------------
TotEng   =       117.2098 KinEng   =       125.1679 Temp     =       279.9416 
PotEng   =        -7.9582 E_bond   =         1.6232 E_angle  =        24.2805 
E_dihed  =        68.3598 E_impro  =         0.0000 E_vdwl   =       -33.8514 
E_coul   =       -68.3703 E_long   =         0.0000 Press    =         0.0016
------------ Step       14000000 ----- CPU =     1286.171 (sec) -------------
TotEng   =       142.1155 KinEng   =       150.3829 Temp     =       336.3356 
PotEng   =        -8.2674 E_bond   =         1.7374 E_angle  =        23.0652 
E_dihed  =        68.8806 E_impro  =         0.0000 E_vdwl   =       -33.9364 
E_coul   =       -68.0143 E_long   =         0.0000 Press    =         0.0043
------------ Step       14100000 ----- CPU =     1294.977 (sec) -------------
TotEng   =       128.5308 KinEng   =       137.2045 Temp     =       306.8619 
PotEng   =        -8.6737 E_bond   =         1.1542 E_angle  =        24.0445 
E_dihed  =        68.8422 E_impro  =         0.0000 E_vdwl   =       -34.1038 
E_coul   =       -68.6108 E_long   =         0.0000 Press    =         0.0065
------------ Step       14200000 ----- CPU =     1303.766 (sec) -------------
TotEng   =       127.6206 KinEng   =       135.2361 Temp     =       302.4594 
PotEng   =        -7.6156 E_bond   =         1.9037 E_angle  =        24.9126 
E_dihed  =        67.8611 E_impro  =         0.0000 E_vdwl   =       -33.6196 
E_coul   =       -68.6733 E_long   =         0.0000 Press    =        -0.0011
------------ Step       14300000 ----- CPU =     1312.604 (sec) -------------
TotEng   =       128.8463 KinEng   =       135.3197 Temp     =       302.6463 
PotEng   =        -6.4734 E_bond   =         2.7391 E_angle  =        26.0633 
E_dihed  =        67.5655 E_impro  =         0.0000 E_vdwl   =       -33.1196 
E_coul   =       -69.7217 E_long   =         0.0000 Press    =        -0.0075
------------ Step       14400000 ----- CPU =     1321.523 (sec) -------------
TotEng   =       125.1990 KinEng   =       133.5504 Temp     =       298.6894 
PotEng   =        -8.3515 E_bond   =         2.0147 E_angle  =        23.4573 
E_dihed  =        68.3602 E_impro  =         0.0000 E_vdwl   =       -34.0756 
E_coul   =       -68.1081 E_long   =         0.0000 Press    =         0.0007
------------ Step       14500000 ----- CPU =     1330.677 (sec) -------------
TotEng   =       102.4244 KinEng   =       109.8888 Temp     =       245.7695 
PotEng   =        -7.4644 E_bond   =         1.9332 E_angle  =        23.5356 
E_dihed  =        68.5896 E_impro  =         0.0000 E_vdwl   =       -33.4958 
E_coul   =       -68.0270 E_long   =         0.0000 Press    =        -0.0074
------------ Step       14600000 ----- CPU =     1339.536 (sec) -------------
TotEng   =       138.3779 KinEng   =       146.9239 Temp     =       328.5995 
PotEng   =        -8.5460 E_bond   =         1.7478 E_angle  =        24.5445 
E_dihed  =        67.1707 E_impro  =         0.0000 E_vdwl   =       -32.9872 
E_coul   =       -69.0218 E_long   =         0.0000 Press    =         0.0044
------------ Step       14700000 ----- CPU =     1348.252 (sec) -------------
TotEng   =       107.5342 KinEng   =       114.6911 Temp     =       256.5100 
PotEng   =        -7.1569 E_bond   =         1.7887 E_angle  =        24.3172 
E_dihed  =        67.5315 E_impro  =         0.0000 E_vdwl   =       -33.0503 
E_coul   =       -67.7440 E_long   =         0.0000 Press    =        -0.0098
------------ Step       14800000 ----- CPU =         1357 (sec) -------------
TotEng   =       111.7772 KinEng   =       118.9173 Temp     =       265.9620 
PotEng   =        -7.1401 E_bond   =         2.1784 E_angle  =        24.7971 
E_dihed  =        68.9893 E_impro  =         0.0000 E_vdwl   =       -34.2927 
E_coul   =       -68.8122 E_long   =         0.0000 Press    =        -0.0118
------------ Step       14900000 ----- CPU =     1366.235 (sec) -------------
TotEng   =       108.8999 KinEng   =       117.5603 Temp     =       262.9270 
PotEng   =        -8.6604 E_bond   =         1.4642 E_angle  =        23.0208 
E_dihed  =        68.8999 E_impro  =         0.0000 E_vdwl   =       -33.8751 
E_coul   =       -68.1701 E_long   =         0.0000 Press    =        -0.0013
------------ Step       15000000 ----- CPU =     1375.432 (sec) -------------
TotEng   =       132.4538 KinEng   =       139.8376 Temp     =       312.7508 
PotEng   =        -7.3838 E_bond   =         2.1116 E_angle  =        23.5459 
E_dihed  =        68.6328 E_impro  =         0.0000 E_vdwl   =       -33.2633 
E_coul   =       -68.4108 E_long   =         0.0000 Press    =        -0.0065
------------ Step       15100000 ----- CPU =     1384.506 (sec) -------------
TotEng   =       127.8115 KinEng   =       135.7042 Temp     =       303.5062 
PotEng   =        -7.8927 E_bond   =         1.8447 E_angle  =        23.9735 
E_dihed  =        67.4537 E_impro  =         0.0000 E_vdwl   =       -34.1107 
E_coul   =       -67.0539 E_long   =         0.0000 Press    =        -0.0013
------------ Step       15200000 ----- CPU =     1393.483 (sec) -------------
TotEng   =       139.8713 KinEng   =       149.3210 Temp     =       333.9606 
PotEng   =        -9.4497 E_bond   =         1.4567 E_angle  =        22.9798 
E_dihed  =        67.8987 E_impro  =         0.0000 E_vdwl   =       -33.3964 
E_coul   =       -68.3886 E_long   =         0.0000 Press    =         0.0054
------------ Step       15300000 ----- CPU =     1402.523 (sec) -------------
TotEng   =       134.8448 KinEng   =       142.7428 Temp     =       319.2483 
PotEng   =        -7.8980 E_bond   =         1.5316 E_angle  =        24.8592 
E_dihed  =        68.0628 E_impro  =         0.0000 E_vdwl   =       -33.2061 
E_coul   =       -69.1454 E_long   =         0.0000 Press    =         0.0029
------------ Step       15400000 ----- CPU =     1411.349 (sec) -------------
TotEng   =       129.7200 KinEng   =       137.9921 Temp     =       308.6234 
PotEng   =        -8.2722 E_bond   =         1.4873 E_angle  =        23.3807 
E_dihed  =        70.5501 E_impro  =         0.0000 E_vdwl   =       -33.9592 
E_coul   =       -69.7311 E_long   =         0.0000 Press    =         0.0025
------------ Step       15500000 ----- CPU =     1420.266 (sec) -------------
TotEng   =       151.5652 KinEng   =       158.4772 Temp     =       354.4388 
PotEng   =        -6.9121 E_bond   =         1.8641 E_angle  =        25.1310 
E_dihed  =        68.4335 E_impro  =         0.0000 E_vdwl   =       -32.9044 
E_coul   =       -69.4364 E_long   =         0.0000 Press    =         0.0002
------------ Step       15600000 ----- CPU =       1428.9 (sec) -------------
TotEng   =       118.0966 KinEng   =       126.6869 Temp     =       283.3388 
PotEng   =        -8.5902 E_bond   =         1.7019 E_angle  =        23.8339 
E_dihed  =        68.0616 E_impro  =         0.0000 E_vdwl   =       -34.2709 
E_coul   =       -67.9167 E_long   =         0.0000 Press    =        -0.0012
------------ Step       15700000 ----- CPU =     1437.705 (sec) -------------
TotEng   =       111.0605 KinEng   =       119.6908 Temp     =       267.6918 
PotEng   =        -8.6302 E_bond   =         1.4312 E_angle  =        22.6292 
E_dihed  =        69.0823 E_impro  =         0.0000 E_vdwl   =       -33.8679 
E_coul   =       -67.9050 E_long   =         0.0000 Press    =         0.0020
------------ Step       15800000 ----- CPU =     1446.625 (sec) -------------
TotEng   =       110.3207 KinEng   =       118.4134 Temp     =       264.8349 
PotEng   =        -8.0927 E_bond   =         1.7445 E_angle  =        23.9842 
E_dihed  =        67.8842 E_impro  =         0.0000 E_vdwl   =       -33.6801 
E_coul   =       -68.0255 E_long   =         0.0000 Press    =        -0.0029
------------ Step       15900000 ----- CPU =     1455.517 (sec) -------------
TotEng   =       159.5795 KinEng   =       166.6722 Temp     =       372.7670 
PotEng   =        -7.0927 E_bond   =         1.9656 E_angle  =        23.9388 
E_dihed  =        68.4925 E_impro  =         0.0000 E_vdwl   =       -33.2833 
E_coul   =       -68.2063 E_long   =         0.0000 Press    =         0.0060
------------ Step       16000000 ----- CPU =     1464.377 (sec) -------------
TotEng   =       134.1303 KinEng   =       140.5534 Temp     =       314.3516 
PotEng   =        -6.4231 E_bond   =         2.2527 E_angle  =        24.8930 
E_dihed  =        67.9065 E_impro  =         0.0000 E_vdwl   =       -33.7250 
E_coul   =       -67.7503 E_long   =         0.0000 Press    =        -0.0003
------------ Step       16100000 ----- CPU =     1473.093 (sec) -------------
TotEng   =       129.4518 KinEng   =       137.5893 Temp     =       307.7224 
PotEng   =        -8.1375 E_bond   =         1.4750 E_angle  =        22.7227 
E_dihed  =        71.2086 E_impro  =         0.0000 E_vdwl   =       -33.6825 
E_coul   =       -69.8612 E_long   =         0.0000 Press    =         0.0101
------------ Step       16200000 ----- CPU =     1481.909 (sec) -------------
TotEng   =       138.6685 KinEng   =       145.0419 Temp     =       324.3903 
PotEng   =        -6.3734 E_bond   =         2.2001 E_angle  =        24.3863 
E_dihed  =        70.2285 E_impro  =         0.0000 E_vdwl   =       -34.7454 
E_coul   =       -68.4427 E_long   =         0.0000 Press    =        -0.0016
------------ Step       16300000 ----- CPU =     1490.846 (sec) -------------
TotEng   =       136.4641 KinEng   =       142.8531 Temp     =       319.4951 
PotEng   =        -6.3890 E_bond   =         1.8588 E_angle  =        24.8473 
E_dihed  =        67.9270 E_impro  =         0.0000 E_vdwl   =       -32.4185 
E_coul   =       -68.6036 E_long   =         0.0000 Press    =         0.0050
------------ Step       16400000 ----- CPU =     1499.546 (sec) -------------
TotEng   =       130.4504 KinEng   =       135.4615 Temp     =       302.9636 
PotEng   =        -5.0112 E_bond   =         2.9889 E_angle  =        25.3274 
E_dihed  =        68.6343 E_impro  =         0.0000 E_vdwl   =       -33.8081 
E_coul   =       -68.1537 E_long   =         0.0000 Press    =        -0.0092
------------ Step       16500000 ----- CPU =     1508.212 (sec) -------------
TotEng   =       113.1101 KinEng   =       121.4455 Temp     =       271.6162 
PotEng   =        -8.3354 E_bond   =         1.7475 E_angle  =        23.6172 
E_dihed  =        68.3992 E_impro  =         0.0000 E_vdwl   =       -34.2359 
E_coul   =       -67.8633 E_long   =         0.0000 Press    =        -0.0048
------------ Step       16600000 ----- CPU =     1517.174 (sec) -------------
TotEng   =       116.0562 KinEng   =       123.4885 Temp     =       276.1855 
PotEng   =        -7.4323 E_bond   =         2.0484 E_angle  =        23.8145 
E_dihed  =        68.0390 E_impro  =         0.0000 E_vdwl   =       -33.7165 
E_coul   =       -67.6176 E_long   =         0.0000 Press    =        -0.0069
------------ Step       16700000 ----- CPU =     1526.434 (sec) -------------
TotEng   =       118.3960 KinEng   =       125.7802 Temp     =       281.3110 
PotEng   =        -7.3842 E_bond   =         2.2651 E_angle  =        23.7228 
E_dihed  =        68.7466 E_impro  =         0.0000 E_vdwl   =       -34.7452 
E_coul   =       -67.3735 E_long   =         0.0000 Press    =        -0.0124
------------ Step       16800000 ----- CPU =      1535.16 (sec) -------------
TotEng   =       119.0483 KinEng   =       125.2614 Temp     =       280.1507 
PotEng   =        -6.2131 E_bond   =         1.9420 E_angle  =        24.0577 
E_dihed  =        68.6987 E_impro  =         0.0000 E_vdwl   =       -32.3714 
E_coul   =       -68.5401 E_long   =         0.0000 Press    =        -0.0011
------------ Step       16900000 ----- CPU =     1543.771 (sec) -------------
TotEng   =       116.5769 KinEng   =       125.1021 Temp     =       279.7943 
PotEng   =        -8.5252 E_bond   =         1.8593 E_angle  =        24.1836 
E_dihed  =        67.5439 E_impro  =         0.0000 E_vdwl   =       -33.3989 
E_coul   =       -68.7132 E_long   =         0.0000 Press    =         0.0003
------------ Step       17000000 ----- CPU =     1552.329 (sec) -------------
TotEng   =       121.0697 KinEng   =       129.5419 Temp     =       289.7241 
PotEng   =        -8.4722 E_bond   =         1.9423 E_angle  =        24.5252 
E_dihed  =        67.7740 E_impro  =         0.0000 E_vdwl   =       -33.8058 
E_coul   =       -68.9078 E_long   =         0.0000 Press    =        -0.0014
------------ Step       17100000 ----- CPU =     1560.921 (sec) -------------
TotEng   =       141.1886 KinEng   =       150.4862 Temp     =       336.5668 
PotEng   =        -9.2977 E_bond   =         1.5691 E_angle  =        23.9232 
E_dihed  =        67.7549 E_impro  =         0.0000 E_vdwl   =       -34.1224 
E_coul   =       -68.4224 E_long   =         0.0000 Press    =         0.0047
------------ Step       17200000 ----- CPU =     1569.615 (sec) -------------
TotEng   =       124.8520 KinEng   =       133.3185 Temp     =       298.1707 
PotEng   =        -8.4666 E_bond   =         1.5717 E_angle  =        23.3699 
E_dihed  =        68.0701 E_impro  =         0.0000 E_vdwl   =       -33.8097 
E_coul   =       -67.6685 E_long   =         0.0000 Press    =         0.0007
------------ Step       17300000 ----- CPU =     1578.309 (sec) -------------
TotEng   =       138.8710 KinEng   =       145.3576 Temp     =       325.0965 
PotEng   =        -6.4866 E_bond   =         2.5354 E_angle  =        25.8848 
E_dihed  =        68.1845 E_impro  =         0.0000 E_vdwl   =       -34.2476 
E_coul   =       -68.8437 E_long   =         0.0000 Press    =        -0.0036
------------ Step       17400000 ----- CPU =     1586.968 (sec) -------------
TotEng   =       131.7948 KinEng   =       139.2717 Temp     =       311.4851 
PotEng   =        -7.4769 E_bond   =         1.7408 E_angle  =        23.4217 
E_dihed  =        69.4900 E_impro  =         0.0000 E_vdwl   =       -33.9140 
E_coul   =       -68.2154 E_long   =         0.0000 Press    =         0.0026
------------ Step       17500000 ----- CPU =      1595.77 (sec) -------------
TotEng   =       120.6291 KinEng   =       128.9641 Temp     =       288.4319 
PotEng   =        -8.3350 E_bond   =         1.4376 E_angle  =        25.1374 
E_dihed  =        67.3308 E_impro  =         0.0000 E_vdwl   =       -33.7853 
E_coul   =       -68.4555 E_long   =         0.0000 Press    =         0.0025
------------ Step       17600000 ----- CPU =     1604.789 (sec) -------------
TotEng   =       118.0422 KinEng   =       126.4598 Temp     =       282.8310 
PotEng   =        -8.4176 E_bond   =         2.0303 E_angle  =        24.2657 
E_dihed  =        67.6461 E_impro  =         0.0000 E_vdwl   =       -33.9968 
E_coul   =       -68.3629 E_long   =         0.0000 Press    =        -0.0022
------------ Step       17700000 ----- CPU =     1613.626 (sec) -------------
TotEng   =       112.2010 KinEng   =       119.2415 Temp     =       266.6870 
PotEng   =        -7.0405 E_bond   =         1.8521 E_angle  =        24.3762 
E_dihed  =        68.6628 E_impro  =         0.0000 E_vdwl   =       -33.4247 
E_coul   =       -68.5069 E_long   =         0.0000 Press    =        -0.0020
------------ Step       17800000 ----- CPU =     1622.333 (sec) -------------
TotEng   =       140.0544 KinEng   =       148.1301 Temp     =       331.2972 
PotEng   =        -8.0757 E_bond   =         2.0414 E_angle  =        22.9314 
E_dihed  =        69.1376 E_impro  =         0.0000 E_vdwl   =       -34.1191 
E_coul   =       -68.0669 E_long   =         0.0000 Press    =        -0.0011
------------ Step       17900000 ----- CPU =     1630.939 (sec) -------------
TotEng   =       122.0154 KinEng   =       129.2316 Temp     =       289.0302 
PotEng   =        -7.2163 E_bond   =         2.0085 E_angle  =        24.5553 
E_dihed  =        68.3823 E_impro  =         0.0000 E_vdwl   =       -34.0388 
E_coul   =       -68.1237 E_long   =         0.0000 Press    =        -0.0071
------------ Step       18000000 ----- CPU =     1639.545 (sec) -------------
TotEng   =       143.8678 KinEng   =       153.2131 Temp     =       342.6655 
PotEng   =        -9.3453 E_bond   =         1.3505 E_angle  =        23.0162 
E_dihed  =        68.7717 E_impro  =         0.0000 E_vdwl   =       -33.8716 
E_coul   =       -68.6121 E_long   =         0.0000 Press    =         0.0114
------------ Step       18100000 ----- CPU =     1648.168 (sec) -------------
TotEng   =       123.0373 KinEng   =       130.7376 Temp     =       292.3983 
PotEng   =        -7.7003 E_bond   =         2.3969 E_angle  =        25.9103 
E_dihed  =        67.4532 E_impro  =         0.0000 E_vdwl   =       -33.5848 
E_coul   =       -69.8759 E_long   =         0.0000 Press    =        -0.0080
------------ Step       18200000 ----- CPU =     1656.992 (sec) -------------
TotEng   =       127.0888 KinEng   =       135.8780 Temp     =       303.8950 
PotEng   =        -8.7892 E_bond   =         1.4489 E_angle  =        24.1946 
E_dihed  =        67.5257 E_impro  =         0.0000 E_vdwl   =       -33.4951 
[...]
PotEng   =        10.4211 E_bond   =        20.6164 E_angle  =        24.8459 
E_dihed  =        66.2250 E_impro  =         0.0000 E_vdwl   =       -34.4689 
E_coul   =       -66.7974 E_long   =         0.0000 Press    =         0.0200
------------ Step       95400000 ----- CPU =     8357.485 (sec) -------------
TotEng   =       125.4858 KinEng   =       131.5380 Temp     =       294.1886 
PotEng   =        -6.0523 E_bond   =         5.7375 E_angle  =        22.3652 
E_dihed  =        68.9162 E_impro  =         0.0000 E_vdwl   =       -34.8531 
E_coul   =       -68.2181 E_long   =         0.0000 Press    =         0.0046
------------ Step       95500000 ----- CPU =     8366.171 (sec) -------------
TotEng   =       147.5385 KinEng   =       155.6135 Temp     =       348.0341 
PotEng   =        -8.0751 E_bond   =         1.6786 E_angle  =        24.3263 
E_dihed  =        68.2891 E_impro  =         0.0000 E_vdwl   =       -34.3904 
E_coul   =       -67.9787 E_long   =         0.0000 Press    =         0.0065
------------ Step       95600000 ----- CPU =     8374.918 (sec) -------------
TotEng   =       141.4364 KinEng   =       147.1688 Temp     =       329.1472 
PotEng   =        -5.7323 E_bond   =         4.3894 E_angle  =        23.2016 
E_dihed  =        67.6349 E_impro  =         0.0000 E_vdwl   =       -33.6775 
E_coul   =       -67.2806 E_long   =         0.0000 Press    =         0.0138
------------ Step       95700000 ----- CPU =       8383.6 (sec) -------------
TotEng   =       148.1111 KinEng   =       154.9827 Temp     =       346.6233 
PotEng   =        -6.8716 E_bond   =         4.2993 E_angle  =        23.8185 
E_dihed  =        67.7879 E_impro  =         0.0000 E_vdwl   =       -35.0805 
E_coul   =       -67.6969 E_long   =         0.0000 Press    =        -0.0028
------------ Step       95800000 ----- CPU =     8392.247 (sec) -------------
TotEng   =       152.5439 KinEng   =       161.1959 Temp     =       360.5191 
PotEng   =        -8.6520 E_bond   =         1.8982 E_angle  =        22.5638 
E_dihed  =        69.2288 E_impro  =         0.0000 E_vdwl   =       -34.4989 
E_coul   =       -67.8439 E_long   =         0.0000 Press    =         0.0122
------------ Step       95900000 ----- CPU =     8400.936 (sec) -------------
TotEng   =       144.2326 KinEng   =       153.9812 Temp     =       344.3833 
PotEng   =        -9.7486 E_bond   =         1.2810 E_angle  =        22.3564 
E_dihed  =        68.5875 E_impro  =         0.0000 E_vdwl   =       -34.4870 
E_coul   =       -67.4866 E_long   =         0.0000 Press    =         0.0177
------------ Step       96000000 ----- CPU =     8409.639 (sec) -------------
TotEng   =       141.2238 KinEng   =       142.8932 Temp     =       319.5848 
PotEng   =        -1.6694 E_bond   =         8.7018 E_angle  =        23.0961 
E_dihed  =        67.7423 E_impro  =         0.0000 E_vdwl   =       -34.2567 
E_coul   =       -66.9528 E_long   =         0.0000 Press    =         0.0168
------------ Step       96100000 ----- CPU =     8418.284 (sec) -------------
TotEng   =       141.8397 KinEng   =       142.6729 Temp     =       319.0920 
PotEng   =        -0.8332 E_bond   =        10.5337 E_angle  =        23.5092 
E_dihed  =        67.8347 E_impro  =         0.0000 E_vdwl   =       -34.0378 
E_coul   =       -68.6730 E_long   =         0.0000 Press    =        -0.0142
------------ Step       96200000 ----- CPU =     8426.854 (sec) -------------
TotEng   =       131.2766 KinEng   =       138.9745 Temp     =       310.8204 
PotEng   =        -7.6978 E_bond   =         2.6934 E_angle  =        23.8192 
E_dihed  =        68.3955 E_impro  =         0.0000 E_vdwl   =       -34.5082 
E_coul   =       -68.0978 E_long   =         0.0000 Press    =         0.0030
------------ Step       96300000 ----- CPU =     8435.407 (sec) -------------
TotEng   =       132.6811 KinEng   =       135.0435 Temp     =       302.0285 
PotEng   =        -2.3624 E_bond   =         7.7831 E_angle  =        23.8009 
E_dihed  =        68.5211 E_impro  =         0.0000 E_vdwl   =       -33.7738 
E_coul   =       -68.6936 E_long   =         0.0000 Press    =         0.0150
------------ Step       96400000 ----- CPU =     8444.002 (sec) -------------
TotEng   =       134.7848 KinEng   =       122.7878 Temp     =       274.6184 
PotEng   =        11.9970 E_bond   =        22.7603 E_angle  =        23.2698 
E_dihed  =        68.3246 E_impro  =         0.0000 E_vdwl   =       -33.9422 
E_coul   =       -68.4155 E_long   =         0.0000 Press    =        -0.0194
------------ Step       96500000 ----- CPU =     8452.603 (sec) -------------
TotEng   =       149.2162 KinEng   =       136.0940 Temp     =       304.3781 
PotEng   =        13.1221 E_bond   =        24.2997 E_angle  =        22.4631 
E_dihed  =        68.7757 E_impro  =         0.0000 E_vdwl   =       -34.3568 
E_coul   =       -68.0596 E_long   =         0.0000 Press    =         0.0231
------------ Step       96600000 ----- CPU =     8461.198 (sec) -------------
TotEng   =       161.5537 KinEng   =       125.7358 Temp     =       281.2116 
PotEng   =        35.8180 E_bond   =        46.3405 E_angle  =        23.6474 
E_dihed  =        69.1093 E_impro  =         0.0000 E_vdwl   =       -33.8965 
E_coul   =       -69.3827 E_long   =         0.0000 Press    =        -0.0384
------------ Step       96700000 ----- CPU =     8469.816 (sec) -------------
TotEng   =       124.2425 KinEng   =        98.5110 Temp     =       220.3227 
PotEng   =        25.7315 E_bond   =        38.1866 E_angle  =        23.6904 
E_dihed  =        67.7183 E_impro  =         0.0000 E_vdwl   =       -34.5266 
E_coul   =       -69.3372 E_long   =         0.0000 Press    =         0.0185
------------ Step       96800000 ----- CPU =     8478.431 (sec) -------------
TotEng   =       147.1777 KinEng   =       114.9163 Temp     =       257.0135 
PotEng   =        32.2614 E_bond   =        42.6495 E_angle  =        22.4969 
E_dihed  =        68.8778 E_impro  =         0.0000 E_vdwl   =       -34.6596 
E_coul   =       -67.1032 E_long   =         0.0000 Press    =        -0.0347
------------ Step       96900000 ----- CPU =     8487.048 (sec) -------------
TotEng   =       138.8521 KinEng   =       115.4321 Temp     =       258.1671 
PotEng   =        23.4201 E_bond   =        34.6323 E_angle  =        23.6021 
E_dihed  =        67.9001 E_impro  =         0.0000 E_vdwl   =       -34.2701 
E_coul   =       -68.4444 E_long   =         0.0000 Press    =         0.0234
------------ Step       97000000 ----- CPU =     8495.663 (sec) -------------
TotEng   =       141.6774 KinEng   =       129.9549 Temp     =       290.6479 
PotEng   =        11.7225 E_bond   =        23.1540 E_angle  =        23.0174 
E_dihed  =        68.7485 E_impro  =         0.0000 E_vdwl   =       -33.7688 
E_coul   =       -69.4286 E_long   =         0.0000 Press    =        -0.0167
------------ Step       97100000 ----- CPU =     8504.269 (sec) -------------
TotEng   =       157.8155 KinEng   =       159.9286 Temp     =       357.6850 
PotEng   =        -2.1131 E_bond   =         8.8357 E_angle  =        23.1369 
E_dihed  =        69.3869 E_impro  =         0.0000 E_vdwl   =       -35.4885 
E_coul   =       -67.9842 E_long   =         0.0000 Press    =         0.0185
------------ Step       97200000 ----- CPU =      8512.92 (sec) -------------
TotEng   =       131.9437 KinEng   =       114.1423 Temp     =       255.2825 
PotEng   =        17.8014 E_bond   =        28.2153 E_angle  =        24.5062 
E_dihed  =        67.4754 E_impro  =         0.0000 E_vdwl   =       -33.9051 
E_coul   =       -68.4903 E_long   =         0.0000 Press    =        -0.0315
------------ Step       97300000 ----- CPU =     8521.607 (sec) -------------
TotEng   =       169.4549 KinEng   =       164.1827 Temp     =       367.1994 
PotEng   =         5.2722 E_bond   =        15.6588 E_angle  =        24.5468 
E_dihed  =        67.3861 E_impro  =         0.0000 E_vdwl   =       -33.2925 
E_coul   =       -69.0270 E_long   =         0.0000 Press    =         0.0262
------------ Step       97400000 ----- CPU =      8530.27 (sec) -------------
TotEng   =       164.7693 KinEng   =       132.4380 Temp     =       296.2013 
PotEng   =        32.3313 E_bond   =        43.0527 E_angle  =        24.0231 
E_dihed  =        67.5836 E_impro  =         0.0000 E_vdwl   =       -33.8546 
E_coul   =       -68.4734 E_long   =         0.0000 Press    =        -0.0350
------------ Step       97500000 ----- CPU =     8538.834 (sec) -------------
TotEng   =       156.9082 KinEng   =       121.3294 Temp     =       271.3566 
PotEng   =        35.5788 E_bond   =        46.8333 E_angle  =        24.1292 
E_dihed  =        67.5341 E_impro  =         0.0000 E_vdwl   =       -34.0326 
E_coul   =       -68.8852 E_long   =         0.0000 Press    =         0.0214
------------ Step       97600000 ----- CPU =      8547.38 (sec) -------------
TotEng   =       134.3944 KinEng   =       100.8848 Temp     =       225.6317 
PotEng   =        33.5096 E_bond   =        44.4964 E_angle  =        24.4046 
E_dihed  =        67.5179 E_impro  =         0.0000 E_vdwl   =       -33.3246 
E_coul   =       -69.5848 E_long   =         0.0000 Press    =        -0.0446
------------ Step       97700000 ----- CPU =     8556.092 (sec) -------------
TotEng   =       141.2348 KinEng   =       112.2570 Temp     =       251.0661 
PotEng   =        28.9778 E_bond   =        40.3225 E_angle  =        22.5256 
E_dihed  =        69.5451 E_impro  =         0.0000 E_vdwl   =       -35.8467 
E_coul   =       -67.5687 E_long   =         0.0000 Press    =         0.0187
------------ Step       97800000 ----- CPU =     8564.866 (sec) -------------
TotEng   =       153.4622 KinEng   =       160.2563 Temp     =       358.4178 
PotEng   =        -6.7941 E_bond   =         2.8447 E_angle  =        23.2086 
E_dihed  =        69.2272 E_impro  =         0.0000 E_vdwl   =       -33.7325 
E_coul   =       -68.3421 E_long   =         0.0000 Press    =         0.0137
------------ Step       97900000 ----- CPU =     8573.574 (sec) -------------
TotEng   =       126.8395 KinEng   =       116.1040 Temp     =       259.6698 
PotEng   =        10.7355 E_bond   =        21.1613 E_angle  =        23.4043 
E_dihed  =        69.1447 E_impro  =         0.0000 E_vdwl   =       -32.9121 
E_coul   =       -70.0627 E_long   =         0.0000 Press    =        -0.0264
------------ Step       98000000 ----- CPU =     8582.299 (sec) -------------
TotEng   =       137.7172 KinEng   =       146.4684 Temp     =       327.5809 
PotEng   =        -8.7512 E_bond   =         2.1311 E_angle  =        22.7425 
E_dihed  =        68.7112 E_impro  =         0.0000 E_vdwl   =       -34.1924 
E_coul   =       -68.1436 E_long   =         0.0000 Press    =         0.0094
------------ Step       98100000 ----- CPU =     8591.001 (sec) -------------
TotEng   =       144.4465 KinEng   =       131.9603 Temp     =       295.1330 
PotEng   =        12.4862 E_bond   =        22.0812 E_angle  =        23.9536 
E_dihed  =        68.2493 E_impro  =         0.0000 E_vdwl   =       -34.2448 
E_coul   =       -67.5531 E_long   =         0.0000 Press    =         0.0236
------------ Step       98200000 ----- CPU =     8599.747 (sec) -------------
TotEng   =       142.0625 KinEng   =       150.6183 Temp     =       336.8621 
PotEng   =        -8.5558 E_bond   =         2.7404 E_angle  =        24.4181 
E_dihed  =        68.6081 E_impro  =         0.0000 E_vdwl   =       -35.1377 
E_coul   =       -69.1847 E_long   =         0.0000 Press    =         0.0040
------------ Step       98300000 ----- CPU =     8608.465 (sec) -------------
TotEng   =       155.1875 KinEng   =       116.4692 Temp     =       260.4866 
PotEng   =        38.7183 E_bond   =        49.1907 E_angle  =        24.0127 
E_dihed  =        67.8455 E_impro  =         0.0000 E_vdwl   =       -34.4521 
E_coul   =       -67.8785 E_long   =         0.0000 Press    =        -0.0522
------------ Step       98400000 ----- CPU =       8617.1 (sec) -------------
TotEng   =       144.8402 KinEng   =       124.4779 Temp     =       278.3983 
PotEng   =        20.3623 E_bond   =        32.9769 E_angle  =        22.9861 
E_dihed  =        67.5537 E_impro  =         0.0000 E_vdwl   =       -35.3276 
E_coul   =       -67.8268 E_long   =         0.0000 Press    =         0.0248
------------ Step       98500000 ----- CPU =     8625.763 (sec) -------------
TotEng   =       140.1156 KinEng   =       130.5273 Temp     =       291.9281 
PotEng   =         9.5882 E_bond   =        19.4786 E_angle  =        24.5364 
E_dihed  =        67.2272 E_impro  =         0.0000 E_vdwl   =       -33.9180 
E_coul   =       -67.7359 E_long   =         0.0000 Press    =        -0.0116
------------ Step       98600000 ----- CPU =     8634.369 (sec) -------------
TotEng   =       149.4217 KinEng   =       147.4553 Temp     =       329.7879 
PotEng   =         1.9664 E_bond   =        13.1920 E_angle  =        23.7562 
E_dihed  =        67.2956 E_impro  =         0.0000 E_vdwl   =       -34.2982 
E_coul   =       -67.9791 E_long   =         0.0000 Press    =         0.0224
------------ Step       98700000 ----- CPU =     8642.924 (sec) -------------
TotEng   =       139.3064 KinEng   =       146.2173 Temp     =       327.0193 
PotEng   =        -6.9110 E_bond   =         3.4763 E_angle  =        23.7498 
E_dihed  =        67.9344 E_impro  =         0.0000 E_vdwl   =       -34.7216 
E_coul   =       -67.3500 E_long   =         0.0000 Press    =        -0.0003
------------ Step       98800000 ----- CPU =     8651.552 (sec) -------------
TotEng   =       146.5569 KinEng   =       133.0660 Temp     =       297.6058 
PotEng   =        13.4910 E_bond   =        21.1870 E_angle  =        26.6024 
E_dihed  =        68.2166 E_impro  =         0.0000 E_vdwl   =       -33.2077 
E_coul   =       -69.3074 E_long   =         0.0000 Press    =         0.0114
------------ Step       98900000 ----- CPU =     8660.178 (sec) -------------
TotEng   =       136.0846 KinEng   =       143.3350 Temp     =       320.5727 
PotEng   =        -7.2503 E_bond   =         3.8212 E_angle  =        24.5217 
E_dihed  =        67.3034 E_impro  =         0.0000 E_vdwl   =       -34.0995 
E_coul   =       -68.7971 E_long   =         0.0000 Press    =         0.0133
------------ Step       99000000 ----- CPU =     8668.746 (sec) -------------
TotEng   =       140.1182 KinEng   =       147.7011 Temp     =       330.3378 
PotEng   =        -7.5829 E_bond   =         3.3803 E_angle  =        24.2256 
E_dihed  =        67.4372 E_impro  =         0.0000 E_vdwl   =       -33.3011 
E_coul   =       -69.3249 E_long   =         0.0000 Press    =        -0.0035
------------ Step       99100000 ----- CPU =     8677.423 (sec) -------------
TotEng   =       162.6847 KinEng   =       170.6564 Temp     =       381.6778 
PotEng   =        -7.9717 E_bond   =         2.3977 E_angle  =        24.1044 
E_dihed  =        69.3611 E_impro  =         0.0000 E_vdwl   =       -34.9775 
E_coul   =       -68.8574 E_long   =         0.0000 Press    =         0.0089
------------ Step       99200000 ----- CPU =      8686.09 (sec) -------------
TotEng   =       143.5074 KinEng   =       154.6215 Temp     =       345.8153 
PotEng   =       -11.1140 E_bond   =         1.2044 E_angle  =        23.8059 
E_dihed  =        66.5495 E_impro  =         0.0000 E_vdwl   =       -33.3667 
E_coul   =       -69.3072 E_long   =         0.0000 Press    =         0.0183
------------ Step       99300000 ----- CPU =     8694.798 (sec) -------------
TotEng   =       145.3330 KinEng   =       146.5384 Temp     =       327.7374 
PotEng   =        -1.2055 E_bond   =         8.2205 E_angle  =        23.2710 
E_dihed  =        67.7692 E_impro  =         0.0000 E_vdwl   =       -33.2153 
E_coul   =       -67.2508 E_long   =         0.0000 Press    =         0.0236
------------ Step       99400000 ----- CPU =     8703.542 (sec) -------------
TotEng   =       150.5694 KinEng   =       110.4000 Temp     =       246.9127 
PotEng   =        40.1694 E_bond   =        49.3014 E_angle  =        22.4709 
E_dihed  =        69.0546 E_impro  =         0.0000 E_vdwl   =       -33.8953 
E_coul   =       -66.7622 E_long   =         0.0000 Press    =        -0.0431
------------ Step       99500000 ----- CPU =     8712.315 (sec) -------------
TotEng   =       160.9321 KinEng   =       163.0384 Temp     =       364.6399 
PotEng   =        -2.1063 E_bond   =         9.1775 E_angle  =        22.5497 
E_dihed  =        70.0126 E_impro  =         0.0000 E_vdwl   =       -34.4119 
E_coul   =       -69.4341 E_long   =         0.0000 Press    =         0.0299
------------ Step       99600000 ----- CPU =     8721.028 (sec) -------------
TotEng   =       148.1978 KinEng   =       116.2269 Temp     =       259.9448 
PotEng   =        31.9709 E_bond   =        42.8411 E_angle  =        23.4106 
E_dihed  =        68.1893 E_impro  =         0.0000 E_vdwl   =       -34.8037 
E_coul   =       -67.6663 E_long   =         0.0000 Press    =         0.0263
------------ Step       99700000 ----- CPU =     8729.753 (sec) -------------
TotEng   =       170.9370 KinEng   =       127.2153 Temp     =       284.5207 
PotEng   =        43.7217 E_bond   =        52.8678 E_angle  =        23.7194 
E_dihed  =        69.4665 E_impro  =         0.0000 E_vdwl   =       -34.8749 
E_coul   =       -67.4571 E_long   =         0.0000 Press    =        -0.0508
------------ Step       99800000 ----- CPU =     8738.592 (sec) -------------
TotEng   =       147.4646 KinEng   =       135.1495 Temp     =       302.2657 
PotEng   =        12.3151 E_bond   =        21.7180 E_angle  =        24.8800 
E_dihed  =        69.0536 E_impro  =         0.0000 E_vdwl   =       -33.9748 
E_coul   =       -69.3617 E_long   =         0.0000 Press    =        -0.0124
------------ Step       99900000 ----- CPU =     8747.411 (sec) -------------
TotEng   =       134.3672 KinEng   =       128.6921 Temp     =       287.8235 
PotEng   =         5.6752 E_bond   =        14.5159 E_angle  =        23.3596 
E_dihed  =        68.9795 E_impro  =         0.0000 E_vdwl   =       -34.0210 
E_coul   =       -67.1589 E_long   =         0.0000 Press    =        -0.0139
------------ Step      100000000 ----- CPU =     8756.135 (sec) -------------
TotEng   =       138.9712 KinEng   =       147.4483 Temp     =       329.7723 
PotEng   =        -8.4770 E_bond   =         1.9602 E_angle  =        23.8770 
E_dihed  =        67.2827 E_impro  =         0.0000 E_vdwl   =       -34.5538 
E_coul   =       -67.0431 E_long   =         0.0000 Press    =         0.0063
Loop time of 8756.14 on 2 procs for 100000000 steps with 151 atoms

Performance: 986.737 ns/day, 0.024 hours/ns, 11420.564 timesteps/s
100.0% CPU use with 2 MPI tasks x no OpenMP threads

MPI task timing breakdown:
Section |  min time  |  avg time  |  max time  |%varavg| %total
---------------------------------------------------------------
Pair    | 1567.8     | 3252.5     | 4937.2     |2954.1 | 37.15
Bond    | 1039.5     | 1044.1     | 1048.7     |  14.3 | 11.92
Neigh   | 151.24     | 151.25     | 151.25     |   0.0 |  1.73
Comm    | 271.32     | 1944.6     | 3617.9     |3794.5 | 22.21
Output  | 0.02944    | 0.034412   | 0.039384   |   2.7 |  0.00
Modify  | 2310       | 2318.8     | 2327.6     |  18.3 | 26.48
Other   |            | 44.8       |            |       |  0.51

Nlocal:           75.5 ave          77 max          74 min
Histogram: 1 0 0 0 0 0 0 0 0 1
Nghost:           75.5 ave          77 max          74 min
Histogram: 1 0 0 0 0 0 0 0 0 1
Neighs:           5248 ave        8131 max        2365 min
Histogram: 1 0 0 0 0 0 0 0 0 1

Total # of neighbors = 10496
Ave neighs/atom = 69.509934
Ave special neighs/atom = 10.980132
Neighbor list builds = 2224733
Dangerous builds = 7

print "All done"
All done


Total wall time: 2:25:56
