ITEM: TIMESTEP
0
ITEM: NUMBER OF ATOMS
148
ITEM: BOX BOUNDS pp pp pp
-3.0000000000000000e+02 3.0000000000000000e+02
-3.0000000000000000e+02 3.0000000000000000e+02
-3.0000000000000000e+02 3.0000000000000000e+02
ITEM: ATOMS id type xs ys zs ix iy iz q
1 1 0.516025 0.509137 0.504223 0 0 0 0.0381
2 1 0.51698 0.510557 0.505802 0 0 0 0.0357239
3 1 0.518207 0.512415 0.505112 0 0 0 0.0356474
4 1 0.518487 0.512867 0.50283 0 0 0 0.0352445
5 1 0.517513 0.51143 0.501253 0 0 0 0.0365914
6 1 0.51629 0.509573 0.501952 0 0 0 0.0362984
7 2 0.517702 0.511742 0.499487 0 0 0 0.0780824
8 2 0.515548 0.508473 0.500732 0 0 0 0.0833359
9 2 0.518928 0.513502 0.506358 0 0 0 0.077613
10 2 0.515077 0.507698 0.50476 0 0 0 0.0836245
11 2 0.51677 0.510218 0.507562 0 0 0 0.0832457
12 3 0.519805 0.514877 0.502073 0 0 0 0.0204967
13 3 0.522265 0.514792 0.502813 0 0 0 0.0073937
14 4 0.519007 0.516397 0.50277 0 0 0 0.0758479
15 4 0.519748 0.51502 0.500223 0 0 0 0.0771046
16 5 0.523428 0.512765 0.50189 0 0 0 0.0118093
17 6 0.524315 0.51125 0.503298 0 0 0 -0.250597
18 7 0.52356 0.51248 0.499878 0 0 0 -0.252494
19 8 0.523395 0.5168 0.50205 0 0 0 -0.131062
20 9 0.522315 0.51468 0.504662 0 0 0 0.0674754
21 5 0.52438 0.518293 0.503455 0 0 0 0.0185013
22 7 0.524383 0.517968 0.505468 0 0 0 -0.249162
23 3 0.525453 0.520412 0.502577 0 0 0 0.0145092
24 3 0.523718 0.521872 0.501397 0 0 0 0.0207113
25 3 0.525203 0.523372 0.500032 0 0 0 0.0313715
26 4 0.522552 0.522743 0.50254 0 0 0 0.0799166
27 4 0.522718 0.520865 0.500202 0 0 0 0.0769496
28 3 0.526818 0.521653 0.499098 0 0 0 0.023655
29 4 0.526122 0.52452 0.501165 0 0 0 0.075728
30 4 0.52432 0.524363 0.498743 0 0 0 0.0799865
31 10 0.527327 0.520192 0.500978 0 0 0 -0.123427
32 11 0.528295 0.522465 0.498325 0 0 0 0.0753963
33 11 0.525905 0.52068 0.497813 0 0 0 0.0745027
34 11 0.526075 0.521383 0.50404 0 0 0 0.0677739
35 12 0.525067 0.509932 0.502752 0 0 0 0.0631275
36 13 0.523435 0.517102 0.500357 0 0 0 0.067161
37 5 0.528397 0.51809 0.500468 0 0 0 0.0201472
38 7 0.527995 0.516428 0.501577 0 0 0 -0.249043
39 3 0.530235 0.517908 0.498713 0 0 0 0.00416287
40 3 0.529623 0.516135 0.49694 0 0 0 0.013412
41 14 0.527605 0.516778 0.49561 0 0 0 0.0228388
42 4 0.529348 0.514502 0.497772 0 0 0 0.0739823
43 4 0.530998 0.515913 0.495727 0 0 0 0.0757644
44 15 0.525627 0.515623 0.495472 0 0 0 0.0243924
45 16 0.524233 0.516732 0.4941 0 0 0 -0.114667
46 14 0.525398 0.518535 0.493428 0 0 0 0.022535
47 17 0.527455 0.5186 0.494318 0 0 0 -0.113527
48 13 0.528673 0.519815 0.494055 0 0 0 0.0690917
49 18 0.525223 0.514078 0.4963 0 0 0 0.072741
50 8 0.532338 0.517342 0.499805 0 0 0 -0.13461
51 9 0.530477 0.519538 0.497883 0 0 0 0.0662095
52 5 0.534337 0.517335 0.498705 0 0 0 0.00789362
53 13 0.532305 0.517037 0.501492 0 0 0 0.0635706
54 7 0.534403 0.51786 0.496737 0 0 0 -0.252346
55 3 0.53656 0.51683 0.499832 0 0 0 0.013398
56 3 0.536445 0.515848 0.502242 0 0 0 0.0250717
57 3 0.53531 0.513513 0.502213 0 0 0 0.0361215
58 3 0.534908 0.512537 0.504535 0 0 0 0.0346891
59 4 0.536333 0.512328 0.501223 0 0 0 0.0818522
60 4 0.533657 0.513603 0.501398 0 0 0 0.08289
61 4 0.53403 0.510915 0.504372 0 0 0 0.0813145
62 4 0.533852 0.51368 0.505535 0 0 0 0.0810561
63 4 0.536492 0.512217 0.50543 0 0 0 0.0818678
64 3 0.538815 0.515663 0.50323 0 0 0 0.0240053
65 4 0.535493 0.517015 0.503322 0 0 0 0.0762015
66 4 0.538775 0.515063 0.504975 0 0 0 0.0736139
67 4 0.539642 0.517317 0.503283 0 0 0 0.0767546
68 4 0.539857 0.514515 0.502218 0 0 0 0.0774803
69 8 0.537813 0.51891 0.499832 0 0 0 -0.1356
70 9 0.537407 0.515545 0.498797 0 0 0 0.0622521
71 5 0.539752 0.519222 0.49868 0 0 0 0.00350358
72 3 0.540887 0.521503 0.498728 0 0 0 -5.62594e-05
73 3 0.539272 0.523213 0.497633 0 0 0 0.0105733
74 1 0.539953 0.52562 0.49786 0 0 0 0.0288176
75 4 0.537583 0.5231 0.498383 0 0 0 0.0710639
76 4 0.5391 0.522755 0.495845 0 0 0 0.0689346
77 1 0.540045 0.526623 0.499975 0 0 0 0.0221979
78 1 0.540667 0.528858 0.50019 0 0 0 0.0234948
79 1 0.541197 0.530117 0.4983 0 0 0 0.025463
80 1 0.541097 0.529127 0.496185 0 0 0 0.0232052
81 1 0.540475 0.526892 0.495965 0 0 0 0.022171
82 6 0.541795 0.53227 0.498537 0 0 0 -0.230804
83 12 0.542173 0.533198 0.497273 0 0 0 0.0764555
84 7 0.540568 0.517678 0.497627 0 0 0 -0.25903
85 13 0.537168 0.520215 0.500745 0 0 0 0.0620238
86 2 0.539637 0.525673 0.501453 0 0 0 0.0728492
87 2 0.541502 0.530087 0.494712 0 0 0 0.075606
88 2 0.540408 0.526157 0.494318 0 0 0 0.072276
89 2 0.540737 0.529612 0.501828 0 0 0 0.0741221
90 8 0.543033 0.521463 0.49755 0 0 0 -0.137338
91 9 0.541178 0.521875 0.500522 0 0 0 0.061547
92 5 0.54463 0.523072 0.497775 0 0 0 0.00333516
93 7 0.544325 0.524602 0.499083 0 0 0 -0.256681
102 4 0.543997 0.520895 0.493175 0 0 0 0.0746513
107 13 0.543348 0.520138 0.496537 0 0 0 0.0617096
146 23 0.524752 0.519783 0.492298 0 0 0 0.0738343
148 13 0.52867 0.52101 0.501688 0 0 0 0.0706241
94 3 0.546853 0.523118 0.496505 0 0 0 0.014806
95 3 0.547368 0.5213 0.494698 0 0 0 0.0204844
96 3 0.547703 0.518937 0.495652 0 0 0 0.024182
97 4 0.54903 0.51895 0.496938 0 0 0 0.072156
98 4 0.548248 0.517793 0.4943 0 0 0 0.0749869
99 4 0.546208 0.518198 0.49642 0 0 0 0.0729701
100 3 0.545723 0.521343 0.49273 0 0 0 0.0285573
101 4 0.548995 0.521742 0.493938 0 0 0 0.0803624
103 4 0.546283 0.520158 0.491422 0 0 0 0.07699
104 4 0.545692 0.523037 0.491982 0 0 0 0.0795801
105 8 0.548673 0.523237 0.498122 0 0 0 -0.13035
106 9 0.546795 0.524747 0.495615 0 0 0 0.0669661
108 5 0.550752 0.524005 0.497607 0 0 0 0.0150103
109 13 0.54835 0.522803 0.499755 0 0 0 0.0676135
110 3 0.552543 0.524157 0.49939 0 0 0 0.0163399
111 3 0.554602 0.522745 0.498723 0 0 0 0.0244685
112 7 0.551185 0.524638 0.495717 0 0 0 -0.251684
113 3 0.55404 0.520265 0.498427 0 0 0 0.0294664
114 4 0.5559 0.522875 0.500033 0 0 0 0.083317
115 4 0.555318 0.52341 0.497147 0 0 0 0.0812789
116 3 0.556118 0.51892 0.497825 0 0 0 0.0272087
117 4 0.552798 0.520063 0.49707 0 0 0 0.078617
118 4 0.553323 0.519603 0.500003 0 0 0 0.0774178
119 19 0.555523 0.516598 0.497557 0 0 0 -0.109466
120 9 0.557373 0.519087 0.49918 0 0 0 0.0778291
121 9 0.556828 0.519567 0.496238 0 0 0 0.079215
122 20 0.5569 0.515022 0.497043 0 0 0 0.0249911
123 21 0.55921 0.515445 0.496683 0 0 0 -0.120171
124 10 0.556088 0.512808 0.496833 0 0 0 -0.114138
125 13 0.554403 0.512618 0.497115 0 0 0 0.0718601
126 13 0.557 0.511728 0.497807 0 0 0 0.0699295
127 8 0.553162 0.526488 0.499712 0 0 0 -0.121877
128 9 0.551858 0.523512 0.500988 0 0 0 0.069696
129 5 0.554548 0.527207 0.501363 0 0 0 0.0270904
130 13 0.552483 0.527677 0.498667 0 0 0 0.0738613
131 3 0.555077 0.529673 0.501555 0 0 0 0.0192964
132 22 0.55298 0.53089 0.501875 0 0 0 -0.107544
133 3 0.556755 0.530162 0.503463 0 0 0 0.0257839
134 9 0.555848 0.530187 0.499948 0 0 0 0.082275
135 5 0.557585 0.532533 0.503577 0 0 0 0.0317122
136 4 0.558252 0.529095 0.503232 0 0 0 0.0804169
137 4 0.555972 0.529723 0.505085 0 0 0 0.0796043
138 6 0.559035 0.533098 0.505202 0 0 0 -0.232075
139 7 0.55701 0.533932 0.502212 0 0 0 -0.230751
140 7 0.555343 0.52588 0.502692 0 0 0 -0.245852
141 13 0.553218 0.53261 0.501797 0 0 0 0.0871691
142 13 0.552275 0.530482 0.503417 0 0 0 0.0836994
143 12 0.559622 0.534595 0.505325 0 0 0 0.0785107
144 13 0.56026 0.514148 0.496278 0 0 0 0.0681071
145 13 0.559885 0.517017 0.496815 0 0 0 0.0644048
147 13 0.55654 0.512133 0.495322 0 0 0 0.0694255
ITEM: TIMESTEP
1000000
ITEM: NUMBER OF ATOMS
148
ITEM: BOX BOUNDS pp pp pp
-3.0000000000000000e+02 3.0000000000000000e+02
-3.0000000000000000e+02 3.0000000000000000e+02
-3.0000000000000000e+02 3.0000000000000000e+02
ITEM: ATOMS id type xs ys zs ix iy iz q
28 3 0.539461 0.52443 0.502383 0 0 0 0.0352716
31 10 0.539461 0.525363 0.500092 0 0 0 -0.112325
37 5 0.541908 0.525481 0.499059 0 0 0 0.0339145
85 13 0.538768 0.517624 0.498883 0 0 0 0.061643
148 13 0.538324 0.524665 0.499011 0 0 0 0.0789171
71 5 0.541206 0.514925 0.499835 0 0 0 0.0093056
69 8 0.540347 0.516893 0.498813 0 0 0 -0.136093
55 3 0.541934 0.518012 0.497257 0 0 0 0.0122285
52 5 0.541855 0.520655 0.497356 0 0 0 0.0120817
32 11 0.539263 0.522612 0.502282 0 0 0 0.0795842
53 13 0.542976 0.52038 0.500776 0 0 0 0.0655644
50 8 0.542511 0.521467 0.499561 0 0 0 -0.128317
39 3 0.54368 0.523625 0.499764 0 0 0 0.0125789
54 7 0.541673 0.521783 0.49565 0 0 0 -0.248673
131 3 0.532838 0.52037 0.499203 0 0 0 -0.00618551
132 22 0.535018 0.519678 0.500162 0 0 0 -0.125767
142 13 0.535189 0.518189 0.501046 0 0 0 0.0704792
141 13 0.53628 0.519649 0.499011 0 0 0 0.0697922
134 9 0.531694 0.520608 0.500559 0 0 0 0.067918
33 11 0.541095 0.524759 0.503052 0 0 0 0.080695
91 9 0.53978 0.515137 0.502974 0 0 0 0.0629985
38 7 0.542051 0.526467 0.497274 0 0 0 -0.242075
137 4 0.534057 0.522704 0.496613 0 0 0 0.0649017
65 4 0.540266 0.518324 0.494178 0 0 0 0.0815677
139 7 0.532362 0.524702 0.501273 0 0 0 -0.243572
107 13 0.536505 0.514455 0.501104 0 0 0 0.0598378
129 5 0.532027 0.518608 0.497452 0 0 0 0.00939839
70 9 0.543576 0.517488 0.497794 0 0 0 0.0647409
29 4 0.536164 0.524205 0.503974 0 0 0 0.0858903
25 3 0.537593 0.525429 0.503743 0 0 0 0.0400375
23 3 0.538521 0.527662 0.500533 0 0 0 0.0263509
34 11 0.537384 0.528122 0.499169 0 0 0 0.07783
24 3 0.536939 0.527629 0.502577 0 0 0 0.0340946
43 4 0.545412 0.524146 0.496684 0 0 0 0.0816897
133 3 0.532842 0.522502 0.497944 0 0 0 0.0003201
26 4 0.535211 0.527392 0.502153 0 0 0 0.0865736
84 7 0.543034 0.514221 0.499255 0 0 0 -0.258651
56 3 0.541554 0.51722 0.494875 0 0 0 0.0255576
57 3 0.543632 0.51724 0.493503 0 0 0 0.0384243
59 4 0.544337 0.518943 0.493616 0 0 0 0.0834061
58 3 0.545699 0.515799 0.494196 0 0 0 0.0291423
63 4 0.545281 0.513972 0.493856 0 0 0 0.0765491
67 4 0.54145 0.513465 0.49499 0 0 0 0.074696
64 3 0.540303 0.514906 0.4947 0 0 0 0.0248552
68 4 0.539824 0.514814 0.493039 0 0 0 0.0714929
66 4 0.538685 0.514842 0.495627 0 0 0 0.076348
60 4 0.543257 0.51723 0.49177 0 0 0 0.0812324
61 4 0.546201 0.515799 0.495953 0 0 0 0.0768284
62 4 0.54702 0.516185 0.492985 0 0 0 0.0781689
135 5 0.532939 0.52463 0.49937 0 0 0 0.0124018
51 9 0.54415 0.52395 0.50151 0 0 0 0.0716278
72 3 0.539898 0.513856 0.501631 0 0 0 -0.00322312
90 8 0.53762 0.513178 0.500893 0 0 0 -0.140592
88 2 0.538621 0.513354 0.50624 0 0 0 0.0698241
75 4 0.542657 0.5127 0.503624 0 0 0 0.0717612
92 5 0.537121 0.511165 0.499676 0 0 0 0.00326633
73 3 0.541225 0.511937 0.502705 0 0 0 0.010981
81 1 0.538614 0.511582 0.506064 0 0 0 0.0182393
93 7 0.538492 0.509814 0.499046 0 0 0 -0.261262
80 1 0.537156 0.51038 0.507477 0 0 0 0.0188556
87 2 0.536162 0.511102 0.508779 0 0 0 0.0717681
74 1 0.539782 0.510602 0.504376 0 0 0 0.024963
76 4 0.541819 0.510717 0.501422 0 0 0 0.0720111
109 13 0.534337 0.513364 0.496835 0 0 0 0.0617249
105 8 0.533514 0.512201 0.497734 0 0 0 -0.137582
99 4 0.533803 0.50643 0.495966 0 0 0 0.0747409
106 9 0.533861 0.511239 0.501033 0 0 0 0.0617011
94 3 0.534544 0.51073 0.499422 0 0 0 0.0111314
100 3 0.534624 0.506748 0.501061 0 0 0 0.0254183
103 4 0.533672 0.507628 0.502437 0 0 0 0.0742004
83 12 0.534545 0.507672 0.508918 0 0 0 0.0708917
104 4 0.536435 0.506737 0.501499 0 0 0 0.0738336
79 1 0.537283 0.508039 0.507424 0 0 0 0.0245477
77 1 0.539888 0.508279 0.504229 0 0 0 0.0212768
86 2 0.540944 0.507488 0.502985 0 0 0 0.0754053
78 1 0.53872 0.507026 0.505814 0 0 0 0.0202922
89 2 0.538829 0.505269 0.505718 0 0 0 0.0717033
82 6 0.535928 0.506845 0.508698 0 0 0 -0.237183
127 8 0.531205 0.516628 0.498373 0 0 0 -0.135939
130 13 0.530898 0.516567 0.500038 0 0 0 0.0627804
108 5 0.531206 0.512464 0.497817 0 0 0 0.011007
112 7 0.530003 0.51133 0.499042 0 0 0 -0.253491
96 3 0.535095 0.507399 0.496739 0 0 0 0.0295522
97 4 0.536666 0.506541 0.496958 0 0 0 0.0769519
95 3 0.534068 0.508186 0.499011 0 0 0 0.0196324
98 4 0.535464 0.508828 0.495581 0 0 0 0.0763554
102 4 0.533907 0.505091 0.500914 0 0 0 0.0768904
101 4 0.532284 0.507937 0.498773 0 0 0 0.0790948
140 7 0.532647 0.518635 0.49557 0 0 0 -0.257039
128 9 0.531028 0.515242 0.495316 0 0 0 0.0659566
110 3 0.530427 0.514798 0.496962 0 0 0 0.00852808
111 3 0.52793 0.514785 0.496715 0 0 0 0.0213281
114 4 0.527124 0.514681 0.498327 0 0 0 0.0806315
115 4 0.52762 0.51322 0.495762 0 0 0 0.080298
136 4 0.531329 0.522457 0.496922 0 0 0 0.0671988
118 4 0.527396 0.518352 0.496616 0 0 0 0.0804987
113 3 0.527151 0.516879 0.495478 0 0 0 0.0330241
121 9 0.524276 0.515032 0.494623 0 0 0 0.0784294
120 9 0.523557 0.517478 0.496134 0 0 0 0.0792762
116 3 0.524626 0.516798 0.494854 0 0 0 0.027354
117 4 0.528083 0.517232 0.494018 0 0 0 0.0821087
119 19 0.524272 0.517963 0.492666 0 0 0 -0.104047
123 21 0.521712 0.520774 0.493903 0 0 0 -0.107411
144 13 0.521473 0.522397 0.493568 0 0 0 0.0742417
147 13 0.523729 0.520229 0.48908 0 0 0 0.0780523
124 10 0.523756 0.521193 0.490514 0 0 0 -0.105999
122 20 0.5229 0.519603 0.492317 0 0 0 0.0326901
125 13 0.525413 0.521648 0.490828 0 0 0 0.0733814
126 13 0.522713 0.522573 0.490516 0 0 0 0.077215
145 13 0.520219 0.519999 0.494328 0 0 0 0.0751694
138 6 0.533312 0.526521 0.498232 0 0 0 -0.243139
143 12 0.533807 0.525982 0.496786 0 0 0 0.0670433
30 4 0.538472 0.525621 0.505423 0 0 0 0.0820809
27 4 0.537192 0.529162 0.503564 0 0 0 0.0863881
21 5 0.540442 0.529468 0.500608 0 0 0 0.029529
36 13 0.541832 0.528772 0.503699 0 0 0 0.0707392
19 8 0.541859 0.529663 0.502362 0 0 0 -0.125088
22 7 0.540566 0.53077 0.4991 0 0 0 -0.244976
49 18 0.547901 0.52091 0.494837 0 0 0 0.0720793
40 3 0.545883 0.523658 0.498306 0 0 0 0.0217243
41 14 0.547176 0.521493 0.498358 0 0 0 0.0282788
42 4 0.54696 0.525067 0.498763 0 0 0 0.0765798
48 13 0.547802 0.52068 0.501838 0 0 0 0.0735273
44 15 0.548137 0.520463 0.496568 0 0 0 0.0268852
47 17 0.548069 0.520402 0.500213 0 0 0 -0.107987
45 16 0.54938 0.518696 0.497275 0 0 0 -0.115014
46 14 0.5493 0.518658 0.499553 0 0 0 0.0215025
146 23 0.550219 0.517507 0.500635 0 0 0 0.0756085
35 12 0.546028 0.528931 0.501825 0 0 0 0.066527
20 9 0.544144 0.531859 0.501 0 0 0 0.0713711
13 3 0.543334 0.53159 0.502617 0 0 0 0.0125394
17 6 0.546657 0.529508 0.503145 0 0 0 -0.245486
16 5 0.545239 0.530898 0.5041 0 0 0 0.0188103
18 7 0.545671 0.531616 0.505945 0 0 0 -0.24688
9 2 0.544206 0.535824 0.506582 0 0 0 0.0796968
14 4 0.540728 0.533794 0.501961 0 0 0 0.0796178
7 2 0.542672 0.536062 0.49942 0 0 0 0.0815198
15 4 0.541335 0.53347 0.504876 0 0 0 0.0811329
12 3 0.542067 0.53366 0.50325 0 0 0 0.02749
5 1 0.543444 0.536782 0.500927 0 0 0 0.0409263
8 2 0.544413 0.539862 0.499309 0 0 0 0.0785979
4 1 0.543448 0.53568 0.503013 0 0 0 0.0429273
6 1 0.544557 0.538835 0.500804 0 0 0 0.0304126
1 1 0.545597 0.539686 0.502758 0 0 0 0.0336484
3 1 0.544377 0.536559 0.504907 0 0 0 0.0383386
10 2 0.546439 0.541205 0.502612 0 0 0 0.0819829
2 1 0.545488 0.538599 0.504784 0 0 0 0.0320288
11 2 0.546276 0.539245 0.506274 0 0 0 0.0813422
ITEM: TIMESTEP
2000000
ITEM: NUMBER OF ATOMS
148
ITEM: BOX BOUNDS pp pp pp
-3.0000000000000000e+02 3.0000000000000000e+02
-3.0000000000000000e+02 3.0000000000000000e+02
-3.0000000000000000e+02 3.0000000000000000e+02
ITEM: ATOMS id type xs ys zs ix iy iz q
28 3 0.538326 0.514139 0.499956 0 0 0 0.0341947
31 10 0.538283 0.514413 0.497501 0 0 0 -0.110058
37 5 0.53591 0.514412 0.496472 0 0 0 0.0348405
85 13 0.536582 0.521677 0.499839 0 0 0 0.0645186
148 13 0.538932 0.515973 0.497169 0 0 0 0.0779618
71 5 0.534202 0.524061 0.50115 0 0 0 0.00575963
69 8 0.535108 0.522508 0.499588 0 0 0 -0.135866
55 3 0.533823 0.521723 0.497688 0 0 0 0.0135969
52 5 0.534286 0.519284 0.496854 0 0 0 0.0161793
32 11 0.537912 0.515725 0.500668 0 0 0 0.0814891
53 13 0.533595 0.517932 0.500039 0 0 0 0.0671811
50 8 0.533998 0.517536 0.498499 0 0 0 -0.12694
39 3 0.534059 0.515125 0.497945 0 0 0 0.0137572
54 7 0.534947 0.518865 0.494962 0 0 0 -0.248723
131 3 0.543941 0.522464 0.499629 0 0 0 -0.000283623
132 22 0.541817 0.52158 0.500381 0 0 0 -0.121059
142 13 0.541336 0.522128 0.50186 0 0 0 0.0717864
141 13 0.540583 0.521687 0.499285 0 0 0 0.0694721
65 4 0.533175 0.522731 0.49428 0 0 0 0.0829335
56 3 0.534013 0.523426 0.495731 0 0 0 0.0257593
70 9 0.532073 0.521589 0.498123 0 0 0 0.0668284
64 3 0.536587 0.523647 0.495064 0 0 0 0.0271336
68 4 0.537481 0.522025 0.494994 0 0 0 0.0793757
67 4 0.536974 0.524533 0.493562 0 0 0 0.0765499
66 4 0.537519 0.52432 0.496555 0 0 0 0.0772547
29 4 0.541852 0.514997 0.500804 0 0 0 0.0862238
91 9 0.536524 0.523331 0.503527 0 0 0 0.0606289
33 11 0.537054 0.512915 0.50034 0 0 0 0.0812009
72 3 0.535549 0.524805 0.503203 0 0 0 -0.00295466
133 3 0.544896 0.521078 0.49774 0 0 0 0.00371159
137 4 0.543921 0.52129 0.496258 0 0 0 0.0643626
107 13 0.538706 0.526176 0.503052 0 0 0 0.060247
134 9 0.545138 0.522371 0.50099 0 0 0 0.0702916
25 3 0.540747 0.513547 0.500689 0 0 0 0.0417646
135 5 0.544974 0.518544 0.498394 0 0 0 0.00932338
139 7 0.545113 0.517819 0.500299 0 0 0 -0.243593
38 7 0.535681 0.514217 0.494461 0 0 0 -0.241855
90 8 0.53711 0.526577 0.502647 0 0 0 -0.138062
51 9 0.534068 0.514207 0.499447 0 0 0 0.0698928
43 4 0.531645 0.515326 0.495083 0 0 0 0.080373
57 3 0.532798 0.525792 0.495966 0 0 0 0.0313439
59 4 0.533436 0.526917 0.494628 0 0 0 0.0781354
60 4 0.53336 0.52675 0.497465 0 0 0 0.0811973
84 7 0.532322 0.524722 0.500978 0 0 0 -0.257311
58 3 0.530274 0.525716 0.496046 0 0 0 0.0301255
63 4 0.529641 0.524832 0.494566 0 0 0 0.0757641
62 4 0.529719 0.524598 0.497399 0 0 0 0.0778279
136 4 0.546609 0.521455 0.497365 0 0 0 0.0704677
143 12 0.544338 0.518198 0.495319 0 0 0 0.0671593
138 6 0.544408 0.517204 0.496661 0 0 0 -0.240769
30 4 0.540794 0.512646 0.502278 0 0 0 0.0844643
34 11 0.540705 0.513492 0.495246 0 0 0 0.0773907
23 3 0.53989 0.512691 0.496665 0 0 0 0.0264014
24 3 0.541509 0.512127 0.498621 0 0 0 0.0357462
26 4 0.543319 0.512397 0.49818 0 0 0 0.0869674
21 5 0.538868 0.510404 0.495877 0 0 0 0.0282954
22 7 0.539348 0.509759 0.494042 0 0 0 -0.244593
49 18 0.528498 0.5179 0.496829 0 0 0 0.0705019
40 3 0.53199 0.514354 0.496598 0 0 0 0.020237
41 14 0.529857 0.514559 0.497891 0 0 0 0.0280761
44 15 0.528379 0.516358 0.497759 0 0 0 0.027325
36 13 0.536811 0.50969 0.49863 0 0 0 0.0686917
19 8 0.537365 0.509157 0.497185 0 0 0 -0.12844
35 12 0.532476 0.508206 0.49518 0 0 0 0.0644528
16 5 0.53416 0.506571 0.497461 0 0 0 0.0161799
42 4 0.532142 0.512594 0.496116 0 0 0 0.0775146
17 6 0.532305 0.507011 0.496278 0 0 0 -0.248693
18 7 0.534251 0.505278 0.499015 0 0 0 -0.248267
27 4 0.54135 0.510338 0.498867 0 0 0 0.0825621
20 9 0.535821 0.507722 0.494525 0 0 0 0.071824
13 3 0.536271 0.50718 0.496133 0 0 0 0.0130794
12 3 0.537911 0.505183 0.495995 0 0 0 0.0274208
15 4 0.538535 0.504947 0.497628 0 0 0 0.0814901
7 2 0.534767 0.504546 0.492742 0 0 0 0.0820213
14 4 0.539255 0.50583 0.494934 0 0 0 0.0806878
5 1 0.535113 0.503042 0.493642 0 0 0 0.0389973
6 1 0.533799 0.501165 0.493241 0 0 0 0.0321195
1 1 0.533989 0.499272 0.494616 0 0 0 0.0358537
8 2 0.5325 0.501303 0.491955 0 0 0 0.0816708
9 2 0.538027 0.501238 0.49809 0 0 0 0.0765017
4 1 0.536709 0.503054 0.495342 0 0 0 0.0412569
3 1 0.536991 0.501098 0.496658 0 0 0 0.0357113
2 1 0.535624 0.499239 0.496271 0 0 0 0.0328508
10 2 0.532803 0.497863 0.494367 0 0 0 0.0840342
11 2 0.535667 0.497846 0.497495 0 0 0 0.0798513
47 17 0.528736 0.512965 0.499162 0 0 0 -0.110742
48 13 0.529348 0.511393 0.499624 0 0 0 0.0719669
45 16 0.526606 0.51595 0.499123 0 0 0 -0.110925
46 14 0.526796 0.513923 0.499887 0 0 0 0.020617
146 23 0.525616 0.513083 0.501088 0 0 0 0.0752328
61 4 0.52949 0.527245 0.496288 0 0 0 0.0792061
88 2 0.537412 0.523797 0.50798 0 0 0 0.073609
73 3 0.534184 0.525405 0.505249 0 0 0 0.0132587
76 4 0.532712 0.5265 0.504716 0 0 0 0.0730872
75 4 0.533484 0.523881 0.505847 0 0 0 0.0719754
109 13 0.539986 0.528802 0.498871 0 0 0 0.0626871
92 5 0.536564 0.528668 0.501656 0 0 0 0.00448444
94 3 0.538447 0.530426 0.501774 0 0 0 0.0128232
81 1 0.537065 0.5255 0.5084 0 0 0 0.0205961
74 1 0.535429 0.526682 0.507187 0 0 0 0.0244583
93 7 0.534695 0.529178 0.500957 0 0 0 -0.256359
77 1 0.534915 0.528877 0.507847 0 0 0 0.0217414
98 4 0.534668 0.532599 0.499196 0 0 0 0.0746988
104 4 0.534603 0.532594 0.503498 0 0 0 0.0758154
86 2 0.533656 0.529761 0.506875 0 0 0 0.0737361
87 2 0.539645 0.52566 0.510919 0 0 0 0.0707449
80 1 0.538401 0.526538 0.510041 0 0 0 0.0181382
79 1 0.537996 0.528812 0.510479 0 0 0 0.0255605
83 12 0.540744 0.528822 0.512144 0 0 0 0.0717074
82 6 0.539469 0.52981 0.5119 0 0 0 -0.235587
78 1 0.536276 0.52995 0.509459 0 0 0 0.0198875
89 2 0.535935 0.531679 0.509896 0 0 0 0.0715007
129 5 0.543887 0.524953 0.498822 0 0 0 0.0132123
140 7 0.543499 0.525369 0.496799 0 0 0 -0.254429
128 9 0.544305 0.529087 0.497898 0 0 0 0.066933
127 8 0.544375 0.526679 0.500307 0 0 0 -0.133614
130 13 0.544523 0.526345 0.501952 0 0 0 0.061239
117 4 0.548398 0.528818 0.497421 0 0 0 0.0796079
118 4 0.548783 0.527322 0.499943 0 0 0 0.0795301
121 9 0.552253 0.529272 0.498937 0 0 0 0.0826489
105 8 0.540295 0.529793 0.50022 0 0 0 -0.134832
97 4 0.536197 0.534907 0.498466 0 0 0 0.0750434
110 3 0.54445 0.52908 0.499736 0 0 0 0.0100841
106 9 0.539129 0.530446 0.503453 0 0 0 0.0631349
108 5 0.542484 0.530416 0.500784 0 0 0 0.0120522
112 7 0.54291 0.531623 0.502398 0 0 0 -0.254664
113 3 0.548672 0.529001 0.499252 0 0 0 0.0294342
144 13 0.552734 0.535467 0.501775 0 0 0 0.0695855
120 9 0.550937 0.531835 0.498748 0 0 0 0.0808105
116 3 0.550891 0.530255 0.499674 0 0 0 0.0258138
123 21 0.553345 0.533893 0.501665 0 0 0 -0.114291
145 13 0.554933 0.533686 0.502103 0 0 0 0.0704063
111 3 0.546677 0.530061 0.500382 0 0 0 0.0189113
115 4 0.546463 0.531854 0.499828 0 0 0 0.0802756
114 4 0.546855 0.529909 0.502171 0 0 0 0.0801176
119 19 0.551119 0.53071 0.502088 0 0 0 -0.10419
122 20 0.5521 0.532466 0.502865 0 0 0 0.0285789
125 13 0.552488 0.534202 0.505677 0 0 0 0.0724833
126 13 0.55407 0.531889 0.505543 0 0 0 0.0729534
124 10 0.552496 0.532592 0.505278 0 0 0 -0.111418
147 13 0.551472 0.531686 0.506227 0 0 0 0.0731319
96 3 0.53645 0.533214 0.498961 0 0 0 0.0273071
99 4 0.537221 0.532338 0.497503 0 0 0 0.0735362
100 3 0.536169 0.533573 0.503161 0 0 0 0.0252825
103 4 0.53717 0.53375 0.504736 0 0 0 0.0737362
95 3 0.537653 0.532838 0.501236 0 0 0 0.0189317
101 4 0.539115 0.533991 0.501192 0 0 0 0.0763747
102 4 0.535625 0.535281 0.502796 0 0 0 0.0730372
ITEM: TIMESTEP
3000000
ITEM: NUMBER OF ATOMS
148
ITEM: BOX BOUNDS pp pp pp
-3.0000000000000000e+02 3.0000000000000000e+02
-3.0000000000000000e+02 3.0000000000000000e+02
-3.0000000000000000e+02 3.0000000000000000e+02
ITEM: ATOMS id type xs ys zs ix iy iz q
85 13 0.537411 0.519141 0.499011 0 0 0 0.0657103
71 5 0.53747 0.521938 0.501 0 0 0 0.00619454
69 8 0.536466 0.520134 0.499966 0 0 0 -0.13585
55 3 0.534153 0.519305 0.500523 0 0 0 0.00912955
52 5 0.533477 0.517239 0.499106 0 0 0 0.00929033
54 7 0.533385 0.517403 0.497096 0 0 0 -0.253837
56 3 0.532343 0.521079 0.500057 0 0 0 0.024125
70 9 0.534169 0.518928 0.502293 0 0 0 0.0604049
64 3 0.532843 0.522542 0.497985 0 0 0 0.0292509
68 4 0.533993 0.523902 0.498453 0 0 0 0.0751193
67 4 0.533582 0.521571 0.496618 0 0 0 0.0776228
91 9 0.540172 0.522161 0.49853 0 0 0 0.0629912
72 3 0.539971 0.522385 0.500359 0 0 0 0.0032677
90 8 0.540495 0.524752 0.500815 0 0 0 -0.134981
107 13 0.540624 0.525661 0.49941 0 0 0 0.0622809
84 7 0.536595 0.522864 0.502529 0 0 0 -0.257665
60 4 0.532813 0.523476 0.502652 0 0 0 0.0768622
92 5 0.541354 0.52557 0.502807 0 0 0 0.00726221
75 4 0.541358 0.519061 0.500774 0 0 0 0.0710178
93 7 0.541193 0.524499 0.504512 0 0 0 -0.254612
73 3 0.541568 0.52068 0.501569 0 0 0 0.0172042
76 4 0.541043 0.520509 0.5033 0 0 0 0.0750526
88 2 0.543847 0.522353 0.497992 0 0 0 0.0762358
74 1 0.544035 0.521325 0.501419 0 0 0 0.0339959
86 2 0.544679 0.520111 0.504806 0 0 0 0.0778855
57 3 0.531515 0.522407 0.502081 0 0 0 0.0299132
81 1 0.544958 0.522124 0.49943 0 0 0 0.0262919
53 13 0.532397 0.515337 0.501921 0 0 0 0.0625899
65 4 0.530869 0.520079 0.499566 0 0 0 0.0791298
66 4 0.531321 0.52325 0.49731 0 0 0 0.0764306
63 4 0.532142 0.520315 0.505012 0 0 0 0.0739885
77 1 0.545394 0.52088 0.503266 0 0 0 0.027942
97 4 0.537846 0.52798 0.504375 0 0 0 0.0765733
99 4 0.539662 0.529191 0.506349 0 0 0 0.0770181
78 1 0.547673 0.521273 0.50312 0 0 0 0.028303
80 1 0.547251 0.52251 0.499286 0 0 0 0.0261543
87 2 0.54797 0.523037 0.497697 0 0 0 0.0743694
50 8 0.532457 0.515441 0.500241 0 0 0 -0.131794
32 11 0.53373 0.510668 0.503051 0 0 0 0.0779499
39 3 0.531097 0.513694 0.499174 0 0 0 0.00466236
51 9 0.530164 0.512937 0.500502 0 0 0 0.0667091
148 13 0.534844 0.509619 0.499723 0 0 0 0.0716575
29 4 0.533324 0.506924 0.504014 0 0 0 0.0801418
25 3 0.532007 0.507487 0.502839 0 0 0 0.0326974
26 4 0.533317 0.504746 0.500747 0 0 0 0.0795367
28 3 0.532434 0.509882 0.502085 0 0 0 0.0242405
33 11 0.530925 0.510887 0.502141 0 0 0 0.0740206
38 7 0.533171 0.511907 0.496212 0 0 0 -0.246654
37 5 0.53264 0.511924 0.498163 0 0 0 0.0258009
31 10 0.53316 0.509838 0.499688 0 0 0 -0.120244
23 3 0.532295 0.5076 0.498781 0 0 0 0.0157446
21 5 0.530213 0.507691 0.497202 0 0 0 0.0167208
22 7 0.530319 0.506724 0.495397 0 0 0 -0.247433
14 4 0.526744 0.504417 0.495672 0 0 0 0.0801573
36 13 0.527902 0.509017 0.49961 0 0 0 0.0656916
19 8 0.528094 0.508337 0.498054 0 0 0 -0.134057
15 4 0.525892 0.50459 0.498414 0 0 0 0.0776663
30 4 0.53039 0.50735 0.503669 0 0 0 0.0766362
24 3 0.531931 0.506032 0.500763 0 0 0 0.0221101
27 4 0.53035 0.505134 0.500527 0 0 0 0.0792722
34 11 0.533602 0.507025 0.497698 0 0 0 0.0706198
58 3 0.53072 0.520967 0.504024 0 0 0 0.0294304
59 4 0.530054 0.523421 0.501592 0 0 0 0.0768968
61 4 0.529648 0.519506 0.503523 0 0 0 0.0767159
62 4 0.529645 0.521905 0.505165 0 0 0 0.0776522
49 18 0.528498 0.519082 0.49633 0 0 0 0.0698224
44 15 0.527531 0.518269 0.497613 0 0 0 0.0239493
43 4 0.530148 0.514982 0.495901 0 0 0 0.0774334
40 3 0.529338 0.514437 0.497401 0 0 0 0.0151843
41 14 0.527698 0.516115 0.498351 0 0 0 0.0218852
42 4 0.528338 0.513001 0.496926 0 0 0 0.074876
47 17 0.526055 0.515798 0.499896 0 0 0 -0.114124
48 13 0.52569 0.514347 0.500633 0 0 0 0.0696481
45 16 0.525821 0.519325 0.498722 0 0 0 -0.118028
46 14 0.525017 0.517839 0.500099 0 0 0 0.0168963
146 23 0.523653 0.518019 0.501254 0 0 0 0.0719231
35 12 0.524345 0.511155 0.495614 0 0 0 0.0602595
17 6 0.52324 0.510611 0.496704 0 0 0 -0.252276
16 5 0.524092 0.508945 0.497953 0 0 0 0.00778568
18 7 0.52303 0.508062 0.499424 0 0 0 -0.253058
20 9 0.526174 0.508585 0.495161 0 0 0 0.0661673
13 3 0.526021 0.50781 0.496803 0 0 0 0.00640586
9 2 0.523018 0.50197 0.498464 0 0 0 0.0771178
7 2 0.522816 0.507127 0.493607 0 0 0 0.0820239
12 3 0.525553 0.505278 0.496752 0 0 0 0.0221108
5 1 0.522021 0.505712 0.494409 0 0 0 0.0411363
4 1 0.523187 0.504607 0.496067 0 0 0 0.0405844
3 1 0.522195 0.502843 0.49711 0 0 0 0.0365164
6 1 0.519865 0.505026 0.493758 0 0 0 0.0347351
2 1 0.52012 0.502059 0.496452 0 0 0 0.0323749
8 2 0.519002 0.506015 0.492517 0 0 0 0.0820503
1 1 0.518938 0.503132 0.494714 0 0 0 0.0330299
11 2 0.519394 0.500605 0.497267 0 0 0 0.0784435
96 3 0.538849 0.529494 0.504731 0 0 0 0.0323239
10 2 0.517408 0.50246 0.494065 0 0 0 0.0811492
94 3 0.542366 0.527945 0.502978 0 0 0 0.0149706
89 2 0.548714 0.520831 0.504518 0 0 0 0.0756284
106 9 0.543029 0.528056 0.504705 0 0 0 0.0641233
109 13 0.544057 0.527803 0.499862 0 0 0 0.0637956
105 8 0.544284 0.528309 0.501448 0 0 0 -0.133652
108 5 0.546067 0.529687 0.502057 0 0 0 0.0151835
130 13 0.549773 0.527634 0.501057 0 0 0 0.0723976
127 8 0.549226 0.528537 0.499732 0 0 0 -0.122637
110 3 0.547727 0.530423 0.500238 0 0 0 0.016771
140 7 0.549675 0.52956 0.496066 0 0 0 -0.248344
112 7 0.546121 0.530539 0.503886 0 0 0 -0.251656
114 4 0.550369 0.531992 0.5021 0 0 0 0.084716
79 1 0.548637 0.522075 0.501105 0 0 0 0.0289353
82 6 0.550853 0.522459 0.500921 0 0 0 -0.235724
83 12 0.551117 0.523109 0.499445 0 0 0 0.0721489
141 13 0.553426 0.524037 0.496023 0 0 0 0.0793318
142 13 0.551718 0.525525 0.494428 0 0 0 0.0782327
132 22 0.552093 0.525086 0.496013 0 0 0 -0.114706
129 5 0.550242 0.528404 0.497644 0 0 0 0.0249001
134 9 0.552878 0.526392 0.499121 0 0 0 0.0754815
131 3 0.552414 0.527031 0.497469 0 0 0 0.00940342
133 3 0.554313 0.528563 0.496794 0 0 0 0.0122667
137 4 0.555844 0.527702 0.496403 0 0 0 0.0712129
139 7 0.554489 0.530158 0.500451 0 0 0 -0.243187
136 4 0.553876 0.529443 0.495273 0 0 0 0.0711096
143 12 0.556294 0.531758 0.49614 0 0 0 0.0681624
138 6 0.556028 0.532017 0.497714 0 0 0 -0.241333
135 5 0.554898 0.530272 0.498492 0 0 0 0.018374
95 3 0.540482 0.529866 0.502801 0 0 0 0.0208096
101 4 0.539606 0.529652 0.501163 0 0 0 0.0780395
98 4 0.537758 0.530937 0.504981 0 0 0 0.0740259
103 4 0.540029 0.533493 0.502759 0 0 0 0.0725555
102 4 0.542128 0.532549 0.50467 0 0 0 0.0749151
100 3 0.541404 0.532252 0.503018 0 0 0 0.0268063
104 4 0.542715 0.532643 0.501848 0 0 0 0.0753147
128 9 0.546745 0.530839 0.498751 0 0 0 0.0693646
118 4 0.551303 0.532832 0.498217 0 0 0 0.0874151
111 3 0.549025 0.532564 0.501003 0 0 0 0.026505
147 13 0.556314 0.534012 0.503551 0 0 0 0.0770884
115 4 0.548034 0.533719 0.50199 0 0 0 0.0818974
113 3 0.550128 0.533969 0.499082 0 0 0 0.0355229
117 4 0.548918 0.534449 0.497872 0 0 0 0.0830125
120 9 0.550435 0.537089 0.500769 0 0 0 0.0796479
116 3 0.55148 0.535969 0.499853 0 0 0 0.0294932
121 9 0.552131 0.536859 0.498354 0 0 0 0.0815755
119 19 0.553342 0.535198 0.501268 0 0 0 -0.100797
122 20 0.554909 0.536575 0.501755 0 0 0 0.0329287
123 21 0.555234 0.538771 0.501028 0 0 0 -0.110524
144 13 0.554211 0.539965 0.501664 0 0 0 0.0719303
124 10 0.556797 0.535629 0.503085 0 0 0 -0.106036
125 13 0.55721 0.53653 0.504503 0 0 0 0.0773506
126 13 0.558152 0.535564 0.502038 0 0 0 0.0790238
145 13 0.556823 0.539323 0.501098 0 0 0 0.072669
ITEM: TIMESTEP
4000000
ITEM: NUMBER OF ATOMS
148
ITEM: BOX BOUNDS pp pp pp
-3.0000000000000000e+02 3.0000000000000000e+02
-3.0000000000000000e+02 3.0000000000000000e+02
-3.0000000000000000e+02 3.0000000000000000e+02
ITEM: ATOMS id type xs ys zs ix iy iz q
85 13 0.539076 0.521925 0.498712 0 0 0 0.0642336
71 5 0.539002 0.518605 0.499642 0 0 0 0.00827605
69 8 0.540027 0.520703 0.49937 0 0 0 -0.136207
55 3 0.542198 0.521346 0.500435 0 0 0 0.00940538
52 5 0.542893 0.523804 0.49987 0 0 0 0.0112695
54 7 0.542848 0.524443 0.497944 0 0 0 -0.252905