
148	atoms
151	bonds
269	angles
400	dihedrals

23	atom types
33	bond types
68	angle types
50	dihedral types

-300.0 300.0 xlo xhi
-300.0 300.0 ylo yhi
-300.0 300.0 zlo zhi

Masses

1	12.01	#ca
2	1.008	#ha
3	12.01	#c3
4	1.008	#hc
5	12.01	#c
6	16.0	#oh
7	16.0	#o
8	14.01	#n
9	1.008	#h1
10	14.01	#n4
11	1.008	#hx
12	1.008	#ho
13	1.008	#hn
14	12.01	#cc
15	12.01	#cd
16	14.01	#nd
17	14.01	#na
18	1.008	#h4
19	14.01	#n2
20	12.01	#c2
21	14.01	#nh
22	14.01	#n3
23	1.008	#h5

Pair Coeffs

1	0.0988	3.31521230994	#ca
2	0.0161	2.62547852236	#ha
3	0.1078	3.39770953124	#c3
4	0.0208	2.60017699876	#hc
5	0.0988	3.31521230994	#c
6	0.093	3.24287133403	#oh
7	0.1463	3.04812087425	#o
8	0.1636	3.18086478325	#n
9	0.0208	2.42199725514	#h1
10	3.8748	2.49950544361	#n4
11	0.0208	1.88745802425	#hx
12	0.0047	0.537924646013	#ho
13	0.01	1.10649620793	#hn
14	0.0988	3.31521230994	#cc
15	0.0988	3.31521230994	#cd
16	0.0941	3.38416787073	#nd
17	0.2042	3.20580994736	#na
18	0.0161	2.53638865055	#h4
19	0.0941	3.38416787073	#n2
20	0.0988	3.31521230994	#c2
21	0.215	3.18995195017	#nh
22	0.0858	3.36510263816	#n3
23	0.0161	2.44729877873	#h5

Bond Coeffs

1	378.57	1.398	#ca-ca
2	395.72	1.086	#ca-ha
3	250.32	1.516	#c3-ca
4	232.52	1.538	#c3-c3
5	375.92	1.097	#c3-hc
6	243.22	1.524	#c-c3
7	263.77	1.462	#c3-n
8	375.92	1.097	#c3-h1
9	383.13	1.351	#c-oh
10	652.57	1.218	#c-o
11	563.51	0.973	#ho-oh
12	356.21	1.379	#c-n
13	527.31	1.013	#hn-n
14	222.58	1.511	#c3-n4
15	386.49	1.091	#c3-hx
16	197.87	1.546	#c-n4
17	482.87	1.03	#hn-n4
18	262.64	1.502	#c3-cc
19	416.13	1.373	#cc-cd
20	354.49	1.38	#cc-na
21	369.1	1.369	#cd-nd
22	403.88	1.082	#cd-h4
23	450.71	1.317	#cc-nd
24	403.49	1.082	#cc-h5
25	535.14	1.01	#hn-na
26	365.55	1.364	#ca-oh
27	259.91	1.466	#c3-n2
28	518.67	1.282	#c2-n2
29	345.39	1.387	#c2-nh
30	221.45	1.512	#c2-n4
31	529.46	1.012	#hn-nh
32	261.19	1.465	#c3-n3
33	511.28	1.019	#hn-n3

Angle Coeffs

1	68.767	120.02	#ca-ca-ca
2	48.68	119.88	#ca-ca-ha
3	65.583	120.77	#c3-ca-ca
4	65.183	112.07	#c3-c3-ca
5	47.281	110.47	#ca-c3-hc
6	46.816	109.8	#c3-c3-hc
7	38.96	107.58	#hc-c3-hc
8	65.307	111.04	#c-c3-c3
9	83.161	111.61	#c3-c3-n
10	84.54	109.06	#c-c3-n
11	46.868	109.56	#c3-c3-h1
12	47.531	108.22	#c-c3-h1
13	61.544	108.88	#h1-c3-n
14	85.803	112.73	#c3-c-oh
15	84.552	123.2	#c3-c-o
16	115.745	122.1	#o-c-oh
17	51.617	106.55	#c-oh-ho
18	65.252	120.69	#c-n-c3
19	46.147	117.68	#c3-n-hn
20	48.691	117.55	#c-n-hn
21	113.811	123.05	#n-c-o
22	84.266	115.18	#c3-c-n
23	82.611	110.73	#c-c3-n4
24	80.976	114.21	#c3-c3-n4
25	47.419	108.85	#c-c3-hx
26	46.677	110.56	#c3-c3-hx
27	60.076	108.01	#hx-c3-n4
28	64.888	111.51	#c3-c3-c3
29	64.46	109.66	#c3-n4-c3
30	38.782	109.75	#hx-c3-hx
31	63.969	108.76	#c-n4-c3
32	46.193	110.11	#c3-n4-hn
33	44.97	111.12	#c-n4-hn
34	106.61	118.83	#n4-c-o
35	81.106	112.26	#c3-c-n4
36	65.515	111.93	#c3-c3-cc
37	47.671	110.49	#cc-c3-hc
38	66.802	119.45	#c3-cc-cd
39	82.356	122.73	#c3-cc-na
40	92.653	106.99	#cd-cc-na
41	91.057	111.65	#cc-cd-nd
42	47.759	128.48	#cc-cd-h4
43	61.716	121.14	#h4-cd-nd
44	73.871	105.49	#cc-nd-cd
45	70.492	109.9	#cc-na-cc
46	115.504	112.22	#na-cc-nd
47	62.461	125.52	#h5-cc-nd
48	61.226	121.55	#h5-cc-na
49	47.101	125.5	#cc-na-hn
50	87.211	119.9	#ca-ca-oh
51	50.712	108.58	#ca-oh-ho
52	84.123	108.8	#c3-c3-n2
53	61.133	109.81	#h1-c3-n2
54	38.802	108.46	#h1-c3-h1
55	68.517	115.3	#c2-n2-c3
56	110.708	124.27	#n2-c2-nh
57	109.745	112.97	#n2-c2-n4
58	106.945	111.23	#n4-c2-nh
59	48.954	115.09	#c2-nh-hn
60	39.519	115.12	#hn-nh-hn
61	46.094	110.37	#c2-n4-hn
62	40.02	108.3	#hn-n4-hn
63	83.673	111.14	#c-c3-n3
64	83.305	111.04	#c3-c3-n3
65	61.163	109.88	#h1-c3-n3
66	47.782	109.29	#c3-n3-hn
67	40.828	106.4	#hn-n3-hn
68	47.411	108.77	#c-c3-hc

Dihedral Coeffs

1	1	3.625	2	180.0	#X-ca-ca-X
2	1	0.245	2	180.0	#c3-c3-ca-ca
3	1	0.0	2	180.0	#hc-c3-ca-ca
4	1	0.1	3	0.0	#ca-c3-c3-c
5	1	0.155555555556	3	0.0	#X-c3-c3-X
6	1	0.21	3	0.0	#ca-c3-c3-n
7	1	0.0	2	180.0	#X-c-c3-X
8	1	0.27	2	180.0	#o-c-c3-c3
9	3	0.03	2	180.0	0.55	3	180.0	0.74	1	0.0	#c3-c3-c-o
10	2	0.8	1	0.0	0.08	3	180.0	#h1-c3-c-o
11	1	1.78	2	180.0	#ho-oh-c-c3
12	2	2.3	2	180.0	1.9	1	0.0	#ho-oh-c-o
13	3	0.1	4	180.0	0.17	3	0.0	1.02	1	180.0	#c-n-c3-c3
14	3	0.65	4	180.0	0.03	3	180.0	2.26	1	0.0	#c3-c3-n-c
15	2	0.39	2	180.0	0.64	1	0.0	#c-c3-n-c
16	1	0.0	2	180.0	#h1-c3-n-c
17	1	0.0	2	0.0	#X-c3-n-X
18	1	2.5	2	180.0	#X-c-n-X
19	2	2.5	2	180.0	2.0	1	0.0	#hn-n-c-o
20	2	0.26	2	180.0	0.5	1	0.0	#c3-n-c-c3
21	2	0.0	4	180.0	0.71	2	180.0	#n-c-c3-c3
22	1	0.1	3	0.0	#c-c3-c3-c3
23	1	0.21	3	0.0	#n4-c3-c3-c3
24	3	0.13	3	0.0	0.29	2	180.0	0.11	1	0.0	#c3-c3-c3-c3
25	1	0.08	3	0.0	#hc-c3-c3-c3
26	1	0.08	3	0.0	#c3-c3-c3-hc
27	1	0.12	3	0.0	#hc-c3-c3-hc
28	1	0.155555555556	3	0.0	#X-c3-n4-X
29	1	0.156	3	0.0	#c3-c3-n4-c3
30	1	0.109	3	0.0	#hn-n4-c3-hx
31	1	2.5	2	180.0	#X-c-n4-X
32	2	1.025	2	180.0	0.365	4	180.0	#hn-n4-c-c3
33	1	0.157	3	180.0	#cd-cc-c3-c3
34	1	0.0	3	0.0	#X-c3-cc-X
35	1	4.0	2	180.0	#X-cc-cd-X
36	1	4.75	2	180.0	#X-cd-nd-X
37	1	1.7	2	180.0	#X-cc-na-X
38	1	4.75	2	180.0	#X-cc-nd-X
39	2	0.1	1	180.0	2.12	2	180.0	#n-c-c3-n
40	1	0.1	3	0.0	#n-c3-c3-c3
41	1	0.835	2	180.0	#ho-oh-ca-ca
42	1	0.0	3	0.0	#X-c3-n2-X
43	1	0.165	3	180.0	#h1-c3-n2-c2
44	1	4.15	2	180.0	#X-c2-n2-X
45	1	0.675	2	180.0	#X-c2-nh-X
46	1	0.0	3	180.0	#X-c2-n4-X
47	1	0.3	3	0.0	#X-c3-n3-X
48	1	0.217	3	0.0	#hn-n3-c3-c3
49	1	0.1	3	0.0	#hc-c3-c3-n3
50	2	0.83	1	0.0	0.04	3	180.0	#o-c-c3-hc




Atoms

1	1	1	0.013513513513514	9.615	5.482	2.534
2	1	1	0.013513513513514	10.188	6.334	3.481
3	1	1	0.013513513513514	10.924	7.449	3.067
4	1	1	0.013513513513514	11.092	7.72	1.698
5	1	1	0.013513513513514	10.508	6.858	0.752
6	1	1	0.013513513513514	9.774	5.744	1.171
7	1	2	0.013513513513514	10.621	7.045	-0.308
8	1	2	0.013513513513514	9.329	5.084	0.439
9	1	2	0.013513513513514	11.357	8.101	3.815
10	1	2	0.013513513513514	9.046	4.619	2.856
11	1	2	0.013513513513514	10.062	6.131	4.537
12	1	3	0.013513513513514	11.883	8.926	1.244
13	1	3	0.013513513513514	13.359	8.875	1.688
14	1	4	0.013513513513514	11.404	9.838	1.662
15	1	4	0.013513513513514	11.849	9.012	0.134
16	1	5	0.013513513513514	14.057	7.659	1.134
17	1	6	0.013513513513514	14.589	6.75	1.979
18	1	7	0.013513513513514	14.136	7.488	-0.073
19	1	8	0.013513513513514	14.037	10.08	1.23
20	1	9	0.013513513513514	13.389	8.808	2.797
21	1	5	0.013513513513514	14.628	10.976	2.073
22	1	7	0.013513513513514	14.63	10.781	3.281
23	1	3	0.013513513513514	15.272	12.247	1.546
24	1	3	0.013513513513514	14.231	13.123	0.838
25	1	3	0.013513513513514	15.122	14.023	0.019
26	1	4	0.013513513513514	13.531	13.646	1.524
27	1	4	0.013513513513514	13.631	12.519	0.121
28	1	3	0.013513513513514	16.091	12.992	-0.541
29	1	4	0.013513513513514	15.673	14.712	0.699
30	1	4	0.013513513513514	14.592	14.618	-0.754
31	1	10	0.013513513513514	16.396	12.115	0.587
32	1	11	0.013513513513514	16.977	13.479	-1.005
33	1	11	0.013513513513514	15.543	12.408	-1.312
34	1	11	0.013513513513514	15.645	12.83	2.424
35	1	12	0.013513513513514	15.04	5.959	1.651
36	1	13	0.013513513513514	14.061	10.261	0.214
37	1	5	0.013513513513514	17.038	10.854	0.281
38	1	7	0.013513513513514	16.797	9.857	0.946
39	1	3	0.013513513513514	18.141	10.745	-0.772
40	1	3	0.013513513513514	17.774	9.681	-1.836
41	1	14	0.013513513513514	16.563	10.067	-2.634
42	1	4	0.013513513513514	17.609	8.701	-1.337
43	1	4	0.013513513513514	18.599	9.548	-2.564
44	1	15	0.013513513513514	15.376	9.374	-2.717
45	1	16	0.013513513513514	14.54	10.039	-3.54
46	1	14	0.013513513513514	15.239	11.121	-3.943
47	1	17	0.013513513513514	16.473	11.16	-3.409
48	1	13	0.013513513513514	17.204	11.889	-3.567
49	1	18	0.013513513513514	15.134	8.447	-2.22
50	1	8	0.013513513513514	19.403	10.405	-0.117
51	1	9	0.013513513513514	18.286	11.723	-1.27
52	1	5	0.013513513513514	20.602	10.401	-0.777
53	1	13	0.013513513513514	19.383	10.222	0.895
54	1	7	0.013513513513514	20.642	10.716	-1.958
55	1	3	0.013513513513514	21.936	10.098	-0.101
56	1	3	0.013513513513514	21.867	9.509	1.345
57	1	3	0.013513513513514	21.186	8.108	1.328
58	1	3	0.013513513513514	20.945	7.522	2.721
59	1	4	0.013513513513514	21.8	7.397	0.734
60	1	4	0.013513513513514	20.194	8.162	0.839
61	1	4	0.013513513513514	20.418	6.549	2.623
62	1	4	0.013513513513514	20.311	8.208	3.321
63	1	4	0.013513513513514	21.895	7.33	3.258
64	1	3	0.013513513513514	23.289	9.398	1.938
65	1	4	0.013513513513514	21.296	10.209	1.993
66	1	4	0.013513513513514	23.265	9.038	2.985
67	1	4	0.013513513513514	23.785	10.39	1.97
68	1	4	0.013513513513514	23.914	8.709	1.331
69	1	8	0.013513513513514	22.688	11.346	-0.101
70	1	9	0.013513513513514	22.444	9.327	-0.722
71	1	5	0.013513513513514	23.851	11.533	-0.792
72	1	3	0.013513513513514	24.532	12.902	-0.763
73	1	3	0.013513513513514	23.563	13.928	-1.42
74	1	1	0.013513513513514	23.972	15.372	-1.284
75	1	4	0.013513513513514	22.55	13.86	-0.97
76	1	4	0.013513513513514	23.46	13.653	-2.493
77	1	1	0.013513513513514	24.027	15.974	-0.015
78	1	1	0.013513513513514	24.4	17.315	0.114
79	1	1	0.013513513513514	24.718	18.07	-1.02
80	1	1	0.013513513513514	24.658	17.476	-2.289
81	1	1	0.013513513513514	24.285	16.135	-2.421
82	1	6	0.013513513513514	25.077	19.362	-0.878
83	1	12	0.013513513513514	25.304	19.919	-1.636
84	1	7	0.013513513513514	24.341	10.607	-1.424
85	1	13	0.013513513513514	22.301	12.129	0.447
86	1	2	0.013513513513514	23.782	15.404	0.872
87	1	2	0.013513513513514	24.901	18.052	-3.173
88	1	2	0.013513513513514	24.245	15.694	-3.409
89	1	2	0.013513513513514	24.442	17.767	1.097
90	1	8	0.013513513513514	25.82	12.878	-1.47
91	1	9	0.013513513513514	24.707	13.125	0.313
92	1	5	0.013513513513514	26.778	13.843	-1.335
93	1	7	0.013513513513514	26.595	14.761	-0.55
94	1	3	0.013513513513514	28.112	13.871	-2.097
95	1	3	0.013513513513514	28.421	12.78	-3.181
96	1	3	0.013513513513514	28.622	11.362	-2.609
97	1	4	0.013513513513514	29.418	11.37	-1.837
98	1	4	0.013513513513514	28.949	10.676	-3.42
99	1	4	0.013513513513514	27.725	10.919	-2.148
100	1	3	0.013513513513514	27.434	12.806	-4.362
101	1	4	0.013513513513514	29.397	13.045	-3.637
102	1	4	0.013513513513514	26.398	12.537	-4.095
103	1	4	0.013513513513514	27.77	12.095	-5.147
104	1	4	0.013513513513514	27.415	13.822	-4.811
105	1	8	0.013513513513514	29.204	13.942	-1.127
106	1	9	0.013513513513514	28.077	14.848	-2.631
107	1	13	0.013513513513514	26.009	12.083	-2.078
108	1	5	0.013513513513514	30.451	14.403	-1.436
109	1	13	0.013513513513514	29.01	13.682	-0.147
110	1	3	0.013513513513514	31.526	14.494	-0.366
111	1	3	0.013513513513514	32.761	13.647	-0.766
112	1	7	0.013513513513514	30.711	14.783	-2.57
113	1	3	0.013513513513514	32.424	12.159	-0.944
114	1	4	0.013513513513514	33.54	13.725	0.02
115	1	4	0.013513513513514	33.191	14.046	-1.712
116	1	3	0.013513513513514	33.671	11.352	-1.305
117	1	4	0.013513513513514	31.679	12.038	-1.758
118	1	4	0.013513513513514	31.994	11.762	0.002
119	1	19	0.013513513513514	33.314	9.959	-1.466
120	1	9	0.013513513513514	34.424	11.452	-0.492
121	1	9	0.013513513513514	34.097	11.74	-2.257
122	1	20	0.013513513513514	34.14	9.013	-1.774
123	1	21	0.013513513513514	35.526	9.267	-1.99
124	1	10	0.013513513513514	33.653	7.685	-1.9
125	1	13	0.013513513513514	32.642	7.571	-1.731
126	1	13	0.013513513513514	34.2	7.037	-1.316
127	1	8	0.013513513513514	31.897	15.893	-0.173
128	1	9	0.013513513513514	31.115	14.107	0.593
129	1	5	0.013513513513514	32.729	16.324	0.818
130	1	13	0.013513513513514	31.49	16.606	-0.8
131	1	3	0.013513513513514	33.046	17.804	0.933
132	1	22	0.013513513513514	31.788	18.534	1.125
133	1	3	0.013513513513514	34.053	18.097	2.078
134	1	9	0.013513513513514	33.509	18.112	-0.031
135	1	5	0.013513513513514	34.551	19.52	2.146
136	1	4	0.013513513513514	34.951	17.457	1.939
137	1	4	0.013513513513514	33.583	17.834	3.051
138	1	6	0.013513513513514	35.421	19.859	3.121
139	1	7	0.013513513513514	34.206	20.359	1.327
140	1	7	0.013513513513514	33.206	15.528	1.615
141	1	13	0.013513513513514	31.931	19.566	1.078
142	1	13	0.013513513513514	31.365	18.289	2.05
143	1	12	0.013513513513514	35.773	20.757	3.195
144	1	13	0.013513513513514	36.156	8.489	-2.233
145	1	13	0.013513513513514	35.931	10.21	-1.911
146	1	23	0.013513513513514	14.851	11.87	-4.621
147	1	13	0.013513513513514	33.924	7.28	-2.807
148	1	13	0.013513513513514	17.202	12.606	1.013


Bonds

1	1	1	2
2	1	1	6
3	2	1	10
4	1	2	3
5	2	2	11
6	1	3	4
7	2	3	9
8	1	4	5
9	3	4	12
10	1	5	6
11	2	5	7
12	2	6	8
13	4	12	13
14	5	12	14
15	5	12	15
16	6	13	16
17	7	13	19
18	8	13	20
19	9	16	17
20	10	16	18
21	11	17	35
22	12	19	21
23	13	19	36
24	10	21	22
25	6	21	23
26	4	23	24
27	14	23	31
28	15	23	34
29	4	24	25
30	5	24	26
31	5	24	27
32	4	25	28
33	5	25	29
34	5	25	30
35	14	28	31
36	15	28	32
37	15	28	33
38	16	31	37
39	17	31	148
40	10	37	38
41	6	37	39
42	4	39	40
43	7	39	50
44	8	39	51
45	18	40	41
46	5	40	42
47	5	40	43
48	19	41	44
49	20	41	47
50	21	44	45
51	22	44	49
52	23	45	46
53	20	46	47
54	24	46	146
55	25	47	48
56	12	50	52
57	13	50	53
58	10	52	54
59	6	52	55
60	4	55	56
61	7	55	69
62	8	55	70
63	4	56	57
64	4	56	64
65	5	56	65
66	4	57	58
67	5	57	59
68	5	57	60
69	5	58	61
70	5	58	62
71	5	58	63
72	5	64	66
73	5	64	67
74	5	64	68
75	12	69	71
76	13	69	85
77	6	71	72
78	10	71	84
79	4	72	73
80	7	72	90
81	8	72	91
82	3	73	74
83	5	73	75
84	5	73	76
85	1	74	77
86	1	74	81
87	1	77	78
88	2	77	86
89	1	78	79
90	2	78	89
91	1	79	80
92	26	79	82
93	1	80	81
94	2	80	87
95	2	81	88
96	11	82	83
97	12	90	92
98	13	90	107
99	10	92	93
100	6	92	94
101	4	94	95
102	7	94	105
103	8	94	106
104	4	95	96
105	4	95	100
106	5	95	101
107	5	96	97
108	5	96	98
109	5	96	99
110	5	100	102
111	5	100	103
112	5	100	104
113	12	105	108
114	13	105	109
115	6	108	110
116	10	108	112
117	4	110	111
118	7	110	127
119	8	110	128
120	4	111	113
121	5	111	114
122	5	111	115
123	4	113	116
124	5	113	117
125	5	113	118
126	27	116	119
127	8	116	120
128	8	116	121
129	28	119	122
130	29	122	123
131	30	122	124
132	31	123	144
133	31	123	145
134	17	124	125
135	17	124	126
136	17	124	147
137	12	127	129
138	13	127	130
139	6	129	131
140	10	129	140
141	32	131	132
142	4	131	133
143	8	131	134
144	33	132	141
145	33	132	142
146	6	133	135
147	5	133	136
148	5	133	137
149	9	135	138
150	10	135	139
151	11	138	143


Angles

1	1	6	1	2
2	2	10	1	2
3	2	10	1	6
4	1	3	2	1
5	2	11	2	1
6	2	11	2	3
7	1	4	3	2
8	2	9	3	2
9	2	9	3	4
10	1	5	4	3
11	3	12	4	3
12	3	12	4	5
13	1	5	6	1
14	1	6	5	4
15	2	7	5	4
16	2	7	5	6
17	2	8	6	1
18	2	8	6	5
19	4	13	12	4
20	5	14	12	4
21	6	14	12	13
22	5	15	12	4
23	6	15	12	13
24	7	15	12	14
25	8	16	13	12
26	9	19	13	12
27	10	19	13	16
28	11	20	13	12
29	12	20	13	16
30	13	20	13	19
31	14	17	16	13
32	15	18	16	13
33	16	18	16	17
34	17	35	17	16
35	18	21	19	13
36	19	36	19	13
37	20	36	19	21
38	21	22	21	19
39	22	23	21	19
40	15	23	21	22
41	8	24	23	21
42	23	31	23	21
43	24	31	23	24
44	25	34	23	21
45	26	34	23	24
46	27	34	23	31
47	28	25	24	23
48	6	26	24	23
49	6	26	24	25
50	6	27	24	23
51	6	27	24	25
52	7	27	24	26
53	28	28	25	24
54	6	29	25	24
55	6	29	25	28
56	6	30	25	24
57	6	30	25	28
58	7	30	25	29
59	29	28	31	23
60	24	31	28	25
61	26	32	28	25
62	27	32	28	31
63	26	33	28	25
64	27	33	28	31
65	30	33	28	32
66	31	37	31	23
67	31	37	31	28
68	32	148	31	23
69	32	148	31	28
70	33	148	31	37
71	34	38	37	31
72	35	39	37	31
73	15	39	37	38
74	8	40	39	37
75	10	50	39	37
76	9	50	39	40
77	12	51	39	37
78	11	51	39	40
79	13	51	39	50
80	36	41	40	39
81	6	42	40	39
82	37	42	40	41
83	6	43	40	39
84	37	43	40	41
85	7	43	40	42
86	38	44	41	40
87	39	47	41	40
88	40	47	41	44
89	41	45	44	41
90	42	49	44	41
91	43	49	44	45
92	44	46	45	44
93	45	46	47	41
94	46	47	46	45
95	47	146	46	45
96	48	146	46	47
97	49	48	47	41
98	49	48	47	46
99	18	52	50	39
100	19	53	50	39
101	20	53	50	52
102	21	54	52	50
103	22	55	52	50
104	15	55	52	54
105	8	56	55	52
106	10	69	55	52
107	9	69	55	56
108	12	70	55	52
109	11	70	55	56
110	13	70	55	69
111	28	57	56	55
112	28	64	56	55
113	28	64	56	57
114	6	65	56	55
115	6	65	56	57
116	6	65	56	64
117	28	58	57	56
118	6	59	57	56
119	6	59	57	58
120	6	60	57	56
121	6	60	57	58
122	7	60	57	59
123	6	61	58	57
124	6	62	58	57
125	7	62	58	61
126	6	63	58	57
127	7	63	58	61
128	7	63	58	62
129	6	66	64	56
130	6	67	64	56
131	7	67	64	66
132	6	68	64	56
133	7	68	64	66
134	7	68	64	67
135	18	71	69	55
136	19	85	69	55
137	20	85	69	71
138	22	72	71	69
139	21	84	71	69
140	15	84	71	72
141	8	73	72	71
142	10	90	72	71
143	9	90	72	73
144	12	91	72	71
145	11	91	72	73
146	13	91	72	90
147	4	74	73	72
148	6	75	73	72
149	5	75	73	74
150	6	76	73	72
151	5	76	73	74
152	7	76	73	75
153	3	77	74	73
154	3	81	74	73
155	1	81	74	77
156	1	78	77	74
157	2	86	77	74
158	2	86	77	78
159	1	79	78	77
160	2	89	78	77
161	2	89	78	79
162	1	80	79	78
163	50	82	79	78
164	50	82	79	80
165	1	80	81	74
166	1	81	80	79
167	2	87	80	79
168	2	87	80	81
169	2	88	81	74
170	2	88	81	80
171	51	83	82	79
172	18	92	90	72
173	19	107	90	72
174	20	107	90	92
175	21	93	92	90
176	22	94	92	90
177	15	94	92	93
178	8	95	94	92
179	10	105	94	92
180	9	105	94	95
181	12	106	94	92
182	11	106	94	95
183	13	106	94	105
184	28	96	95	94
185	28	100	95	94
186	28	100	95	96
187	6	101	95	94
188	6	101	95	96
189	6	101	95	100
190	6	97	96	95
191	6	98	96	95
192	7	98	96	97
193	6	99	96	95
194	7	99	96	97
195	7	99	96	98
196	6	102	100	95
197	6	103	100	95
198	7	103	100	102
199	6	104	100	95
200	7	104	100	102
201	7	104	100	103
202	18	108	105	94
203	19	109	105	94
204	20	109	105	108
205	22	110	108	105
206	21	112	108	105
207	15	112	108	110
208	8	111	110	108
209	10	127	110	108
210	9	127	110	111
211	12	128	110	108
212	11	128	110	111
213	13	128	110	127
214	28	113	111	110
215	6	114	111	110
216	6	114	111	113
217	6	115	111	110
218	6	115	111	113
219	7	115	111	114
220	28	116	113	111
221	6	117	113	111
222	6	117	113	116
223	6	118	113	111
224	6	118	113	116
225	7	118	113	117
226	52	119	116	113
227	11	120	116	113
228	53	120	116	119
229	11	121	116	113
230	53	121	116	119
231	54	121	116	120
232	55	122	119	116
233	56	123	122	119
234	57	124	122	119
235	58	124	122	123
236	59	144	123	122
237	59	145	123	122
238	60	145	123	144
239	61	125	124	122
240	61	126	124	122
241	62	126	124	125
242	61	147	124	122
243	62	147	124	125
244	62	147	124	126
245	18	129	127	110
246	19	130	127	110
247	20	130	127	129
248	22	131	129	127
249	21	140	129	127
250	15	140	129	131
251	63	132	131	129
252	8	133	131	129
253	64	133	131	132
254	12	134	131	129
255	65	134	131	132
256	11	134	131	133
257	66	141	132	131
258	66	142	132	131
259	67	142	132	141
260	8	135	133	131
261	6	136	133	131
262	68	136	133	135
263	6	137	133	131
264	68	137	133	135
265	7	137	133	136
266	14	138	135	133
267	15	139	135	133
268	16	139	135	138
269	17	143	138	135


Dihedrals

1	1	3	2	1	6
2	1	3	2	1	10
3	1	11	2	1	6
4	1	11	2	1	10
5	1	4	3	2	1
6	1	4	3	2	11
7	1	9	3	2	1
8	1	9	3	2	11
9	1	5	4	3	2
10	1	5	4	3	9
11	1	12	4	3	2
12	1	12	4	3	9
13	1	5	6	1	2
14	1	5	6	1	10
15	1	6	5	4	3
16	1	6	5	4	12
17	1	4	5	6	1
18	1	7	5	4	3
19	1	7	5	4	12
20	1	7	5	6	1
21	1	8	6	1	2
22	1	8	6	1	10
23	1	8	6	5	4
24	1	8	6	5	7
25	2	13	12	4	3
26	2	13	12	4	5
27	3	14	12	4	3
28	3	14	12	4	5
29	3	15	12	4	3
30	3	15	12	4	5
31	4	16	13	12	4
32	5	16	13	12	14
33	5	16	13	12	15
34	6	19	13	12	4
35	5	19	13	12	14
36	5	19	13	12	15
37	5	20	13	12	4
38	5	20	13	12	14
39	5	20	13	12	15
40	7	17	16	13	12
41	7	17	16	13	19
42	7	17	16	13	20
43	8	18	16	13	12
44	7	18	16	13	19
45	10	18	16	13	20
46	11	35	17	16	13
47	12	35	17	16	18
48	13	21	19	13	12
49	15	21	19	13	16
50	16	21	19	13	20
51	17	36	19	13	12
52	17	36	19	13	16
53	17	36	19	13	20
54	18	22	21	19	13
55	19	22	21	19	36
56	20	23	21	19	13
57	18	23	21	19	36
58	21	24	23	21	19
59	8	24	23	21	22
60	7	31	23	21	19
61	7	31	23	21	22
62	7	34	23	21	19
63	7	34	23	21	22
64	22	25	24	23	21
65	23	25	24	23	31
66	5	25	24	23	34
67	5	26	24	23	21
68	5	26	24	23	31
69	5	26	24	23	34
70	5	27	24	23	21
71	5	27	24	23	31
72	5	27	24	23	34
73	24	28	25	24	23
74	25	28	25	24	26
75	25	28	25	24	27
76	25	29	25	24	23
77	27	29	25	24	26
78	27	29	25	24	27
79	25	30	25	24	23
80	27	30	25	24	26
81	27	30	25	24	27
82	28	28	31	23	21
83	29	28	31	23	24
84	28	28	31	23	34
85	23	31	28	25	24
86	5	31	28	25	29
87	5	31	28	25	30
88	29	25	28	31	23
89	5	32	28	25	24
90	5	32	28	25	29
91	5	32	28	25	30
92	28	32	28	31	23
93	5	33	28	25	24
94	5	33	28	25	29
95	5	33	28	25	30
96	28	33	28	31	23
97	28	37	31	23	21
98	28	37	31	23	24
99	28	37	31	23	34
100	28	37	31	28	25
101	28	37	31	28	32
102	28	37	31	28	33
103	28	148	31	23	21
104	28	148	31	23	24
105	30	148	31	23	34
106	28	148	31	28	25
107	30	148	31	28	32
108	30	148	31	28	33
109	31	38	37	31	23
110	31	38	37	31	28
111	31	38	37	31	148
112	31	39	37	31	23
113	31	39	37	31	28
114	32	39	37	31	148
115	7	40	39	37	31
116	8	40	39	37	38
117	7	50	39	37	31
118	7	50	39	37	38
119	7	51	39	37	31
120	10	51	39	37	38
121	5	41	40	39	37
122	5	41	40	39	50
123	5	41	40	39	51
124	5	42	40	39	37
125	5	42	40	39	50
126	5	42	40	39	51
127	5	43	40	39	37
128	5	43	40	39	50
129	5	43	40	39	51
130	33	44	41	40	39
131	34	44	41	40	42
132	34	44	41	40	43
133	34	47	41	40	39
134	34	47	41	40	42
135	34	47	41	40	43
136	35	45	44	41	40
137	35	45	44	41	47
138	35	49	44	41	40
139	35	49	44	41	47
140	36	46	45	44	41
141	36	46	45	44	49
142	37	46	47	41	40
143	37	46	47	41	44
144	38	47	46	45	44
145	37	45	46	47	41
146	38	146	46	45	44
147	37	146	46	47	41
148	37	48	47	41	40
149	37	48	47	41	44
150	37	48	47	46	45
151	37	48	47	46	146
152	15	52	50	39	37
153	13	52	50	39	40
154	16	52	50	39	51
155	17	53	50	39	37
156	17	53	50	39	40
157	17	53	50	39	51
158	18	54	52	50	39
159	19	54	52	50	53
160	20	55	52	50	39
161	18	55	52	50	53
162	21	56	55	52	50
163	8	56	55	52	54
164	39	69	55	52	50
165	7	69	55	52	54
166	7	70	55	52	50
167	10	70	55	52	54
168	22	57	56	55	52
169	40	57	56	55	69
170	5	57	56	55	70
171	22	64	56	55	52
172	40	64	56	55	69
173	5	64	56	55	70
174	5	65	56	55	52
175	5	65	56	55	69
176	5	65	56	55	70
177	24	58	57	56	55
178	24	58	57	56	64
179	25	58	57	56	65
180	25	59	57	56	55
181	25	59	57	56	64
182	27	59	57	56	65
183	25	60	57	56	55
184	25	60	57	56	64
185	27	60	57	56	65
186	25	61	58	57	56
187	27	61	58	57	59
188	27	61	58	57	60
189	25	62	58	57	56
190	27	62	58	57	59
191	27	62	58	57	60
192	25	63	58	57	56
193	27	63	58	57	59
194	27	63	58	57	60
195	25	66	64	56	55
196	25	66	64	56	57
197	27	66	64	56	65
198	25	67	64	56	55
199	25	67	64	56	57
200	27	67	64	56	65
201	25	68	64	56	55
202	25	68	64	56	57
203	27	68	64	56	65
204	15	71	69	55	52
205	13	71	69	55	56
206	16	71	69	55	70
207	17	85	69	55	52
208	17	85	69	55	56
209	17	85	69	55	70
210	20	72	71	69	55
211	18	72	71	69	85
212	18	84	71	69	55
213	19	84	71	69	85
214	21	73	72	71	69
215	8	73	72	71	84
216	39	90	72	71	69
217	7	90	72	71	84
218	7	91	72	71	69
219	10	91	72	71	84
220	4	74	73	72	71
221	6	74	73	72	90
222	5	74	73	72	91
223	5	75	73	72	71
224	5	75	73	72	90
225	5	75	73	72	91
226	5	76	73	72	71
227	5	76	73	72	90
228	5	76	73	72	91
229	2	77	74	73	72
230	3	77	74	73	75
231	3	77	74	73	76
232	2	81	74	73	72
233	3	81	74	73	75
234	3	81	74	73	76
235	1	78	77	74	73
236	1	78	77	74	81
237	1	86	77	74	73
238	1	86	77	74	81
239	1	79	78	77	74
240	1	79	78	77	86
241	1	89	78	77	74
242	1	89	78	77	86
243	1	80	79	78	77
244	1	80	79	78	89
245	1	82	79	78	77
246	1	82	79	78	89
247	1	80	81	74	73
248	1	80	81	74	77
249	1	81	80	79	78
250	1	81	80	79	82
251	1	79	80	81	74
252	1	87	80	79	78
253	1	87	80	79	82
254	1	87	80	81	74
255	1	88	81	74	73
256	1	88	81	74	77
257	1	88	81	80	79
258	1	88	81	80	87
259	41	83	82	79	78
260	41	83	82	79	80
261	15	92	90	72	71
262	13	92	90	72	73
263	16	92	90	72	91
264	17	107	90	72	71
265	17	107	90	72	73
266	17	107	90	72	91
267	18	93	92	90	72
268	19	93	92	90	107
269	20	94	92	90	72
270	18	94	92	90	107
271	21	95	94	92	90
272	8	95	94	92	93
273	39	105	94	92	90
274	7	105	94	92	93
275	7	106	94	92	90
276	10	106	94	92	93
277	22	96	95	94	92
278	40	96	95	94	105
279	5	96	95	94	106
280	22	100	95	94	92
281	40	100	95	94	105
282	5	100	95	94	106
283	5	101	95	94	92
284	5	101	95	94	105
285	5	101	95	94	106
286	25	97	96	95	94
287	25	97	96	95	100
288	27	97	96	95	101
289	25	98	96	95	94
290	25	98	96	95	100
291	27	98	96	95	101
292	25	99	96	95	94
293	25	99	96	95	100
294	27	99	96	95	101
295	25	102	100	95	94
296	25	102	100	95	96
297	27	102	100	95	101
298	25	103	100	95	94
299	25	103	100	95	96
300	27	103	100	95	101
301	25	104	100	95	94
302	25	104	100	95	96
303	27	104	100	95	101
304	15	108	105	94	92
305	13	108	105	94	95
306	16	108	105	94	106
307	17	109	105	94	92
308	17	109	105	94	95
309	17	109	105	94	106
310	20	110	108	105	94
311	18	110	108	105	109
312	18	112	108	105	94
313	19	112	108	105	109
314	21	111	110	108	105
315	8	111	110	108	112
316	39	127	110	108	105
317	7	127	110	108	112
318	7	128	110	108	105
319	10	128	110	108	112
320	22	113	111	110	108
321	40	113	111	110	127
322	5	113	111	110	128
323	5	114	111	110	108
324	5	114	111	110	127
325	5	114	111	110	128
326	5	115	111	110	108
327	5	115	111	110	127
328	5	115	111	110	128
329	24	116	113	111	110
330	25	116	113	111	114
331	25	116	113	111	115
332	25	117	113	111	110
333	27	117	113	111	114
334	27	117	113	111	115
335	25	118	113	111	110
336	27	118	113	111	114
337	27	118	113	111	115
338	5	119	116	113	111
339	5	119	116	113	117
340	5	119	116	113	118
341	5	120	116	113	111
342	5	120	116	113	117
343	5	120	116	113	118
344	5	121	116	113	111
345	5	121	116	113	117
346	5	121	116	113	118
347	42	122	119	116	113
348	43	122	119	116	120
349	43	122	119	116	121
350	44	123	122	119	116
351	44	124	122	119	116
352	45	144	123	122	119
353	45	144	123	122	124
354	45	145	123	122	119
355	45	145	123	122	124
356	46	125	124	122	119
357	46	125	124	122	123
358	46	126	124	122	119
359	46	126	124	122	123
360	46	147	124	122	119
361	46	147	124	122	123
362	15	129	127	110	108
363	13	129	127	110	111
364	16	129	127	110	128
365	17	130	127	110	108
366	17	130	127	110	111
367	17	130	127	110	128
368	20	131	129	127	110
369	18	131	129	127	130
370	18	140	129	127	110
371	19	140	129	127	130
372	7	132	131	129	127
373	7	132	131	129	140
374	21	133	131	129	127
375	8	133	131	129	140
376	7	134	131	129	127
377	10	134	131	129	140
378	47	141	132	131	129
379	48	141	132	131	133
380	47	141	132	131	134
381	47	142	132	131	129
382	48	142	132	131	133
383	47	142	132	131	134
384	5	135	133	131	129
385	5	135	133	131	132
386	5	135	133	131	134
387	5	136	133	131	129
388	49	136	133	131	132
389	5	136	133	131	134
390	5	137	133	131	129
391	49	137	133	131	132
392	5	137	133	131	134
393	7	138	135	133	131
394	7	138	135	133	136
395	7	138	135	133	137
396	8	139	135	133	131
397	50	139	135	133	136
398	50	139	135	133	137
399	11	143	138	135	133
400	12	143	138	135	139
