LAMMPS (23 Jun 2022)

# Initialization
units		real
atom_style	full
boundary	p p p
pair_style	lj/cut/coul/cut	100.0

bond_style      harmonic
angle_style     harmonic
dihedral_style	fourier
read_data	angioII+2.lam
Reading data file ...
  orthogonal box = (-300 -300 -300) to (300 300 300)
  1 by 1 by 1 MPI processor grid
  reading atoms ...
  148 atoms
  scanning bonds ...
  3 = max bonds/atom
  scanning angles ...
  6 = max angles/atom
  scanning dihedrals ...
  15 = max dihedrals/atom
  reading bonds ...
  151 bonds
  reading angles ...
  269 angles
  reading dihedrals ...
  400 dihedrals
Finding 1-2 1-3 1-4 neighbors ...
  special bond factors lj:    0        0        0       
  special bond factors coul:  0        0        0       
     4 = max # of 1-2 neighbors
     9 = max # of 1-3 neighbors
    19 = max # of 1-4 neighbors
    21 = max # of special neighbors
  special bonds CPU = 0.000 seconds
  read_data CPU = 0.004 seconds

pair_coeff	1	2	0.0359165699921	2.99965598397
pair_coeff	1	3	0.0969969071672	3.39966950842
pair_coeff	1	4	0.0367450676962	3.02460114808
pair_coeff	1	5	0.086	3.39966950842
pair_coeff	1	6	0.134515426625	3.23307144813
pair_coeff	1	7	0.134387499419	3.17979570479
pair_coeff	1	8	0.120913192002	3.3248340161
pair_coeff	1	9	0.0367450676962	2.93551127627
pair_coeff	1	10	0.120913192002	3.19984092594
pair_coeff	1	11	0.00293257565972	1.74983475421
pair_coeff	1	12	0.0367450676962	2.23437398509
pair_coeff	1	13	0.086	3.39966950842
pair_coeff	1	14	0.120913192002	3.3248340161
pair_coeff	1	15	0.120913192002	3.3248340161
pair_coeff	2	3	0.0405092582011	2.99965598397
pair_coeff	2	4	0.0153460092532	2.62458762364
pair_coeff	2	5	0.0359165699921	2.99965598397
pair_coeff	2	6	0.0561782876208	2.83305792368
pair_coeff	2	7	0.0561248608016	2.77978218034
pair_coeff	2	8	0.0504975246918	2.92482049165
pair_coeff	2	9	0.0153460092532	2.53549775182
pair_coeff	2	10	0.0504975246918	2.7998274015
pair_coeff	2	11	0.00122474487139	1.34982122977
pair_coeff	2	12	0.0153460092532	1.83436046065
pair_coeff	2	13	0.0359165699921	2.99965598397
pair_coeff	2	14	0.0504975246918	2.92482049165
pair_coeff	2	15	0.0504975246918	2.92482049165
pair_coeff	3	4	0.0414436967463	3.02460114808
pair_coeff	3	5	0.0969969071672	3.39966950842
pair_coeff	3	6	0.151716050568	3.23307144813
pair_coeff	3	7	0.151571765181	3.17979570479
pair_coeff	3	8	0.136374484417	3.3248340161
pair_coeff	3	9	0.0414436967463	2.93551127627
pair_coeff	3	10	0.136374484417	3.19984092594
pair_coeff	3	11	0.00330756708171	1.74983475421
pair_coeff	3	12	0.0414436967463	2.23437398509
pair_coeff	3	13	0.0969969071672	3.39966950842
pair_coeff	3	14	0.136374484417	3.3248340161
pair_coeff	3	15	0.136374484417	3.3248340161
pair_coeff	4	5	0.0367450676962	3.02460114808
pair_coeff	4	6	0.0574741681106	2.85800308779
pair_coeff	4	7	0.0574195088798	2.80472734445
pair_coeff	4	8	0.0516623654124	2.94976565576
pair_coeff	4	9	0.0157	2.56044291593
pair_coeff	4	10	0.0516623654124	2.82477256561
pair_coeff	4	11	0.00125299640861	1.37476639388
pair_coeff	4	12	0.0157	1.85930562476
pair_coeff	4	13	0.0367450676962	3.02460114808
pair_coeff	4	14	0.0516623654124	2.94976565576
pair_coeff	4	15	0.0516623654124	2.94976565576
pair_coeff	5	6	0.134515426625	3.23307144813
pair_coeff	5	7	0.134387499419	3.17979570479
pair_coeff	5	8	0.120913192002	3.3248340161
pair_coeff	5	9	0.0367450676962	2.93551127627
pair_coeff	5	10	0.120913192002	3.19984092594
pair_coeff	5	11	0.00293257565972	1.74983475421
pair_coeff	5	12	0.0367450676962	2.23437398509
pair_coeff	5	13	0.086	3.39966950842
pair_coeff	5	14	0.120913192002	3.3248340161
pair_coeff	5	15	0.120913192002	3.3248340161
pair_coeff	6	7	0.210199904852	3.01319764449
pair_coeff	6	8	0.189124297752	3.15823595581
pair_coeff	6	9	0.0574741681106	2.76891321598
pair_coeff	6	10	0.189124297752	3.03324286565
pair_coeff	6	11	0.00458693797647	1.58323669392
pair_coeff	6	12	0.0574741681106	2.0677759248
pair_coeff	6	13	0.134515426625	3.23307144813
pair_coeff	6	14	0.189124297752	3.15823595581
pair_coeff	6	15	0.189124297752	3.15823595581
pair_coeff	7	8	0.188944436277	3.10496021246
pair_coeff	7	9	0.0574195088798	2.71563747263
pair_coeff	7	10	0.188944436277	2.97996712231
pair_coeff	7	11	0.00458257569496	1.52996095058
pair_coeff	7	12	0.0574195088798	2.01450018146
pair_coeff	7	13	0.134387499419	3.17979570479
pair_coeff	7	14	0.188944436277	3.10496021246
pair_coeff	7	15	0.188944436277	3.10496021246
pair_coeff	8	9	0.0516623654124	2.86067578395
pair_coeff	8	10	0.17	3.12500543362
pair_coeff	8	11	0.00412310562562	1.67499926189
pair_coeff	8	12	0.0516623654124	2.15953849277
pair_coeff	8	13	0.120913192002	3.3248340161
pair_coeff	8	14	0.17	3.24999852378
pair_coeff	8	15	0.17	3.24999852378
pair_coeff	9	10	0.0516623654124	2.73568269379
pair_coeff	9	11	0.00125299640861	1.28567652206
pair_coeff	9	12	0.0157	1.77021575294
pair_coeff	9	13	0.0367450676962	2.93551127627
pair_coeff	9	14	0.0516623654124	2.86067578395
pair_coeff	9	15	0.0516623654124	2.86067578395
pair_coeff	10	11	0.00412310562562	1.55000617173
pair_coeff	10	12	0.0516623654124	2.03454540262
pair_coeff	10	13	0.120913192002	3.19984092594
pair_coeff	10	14	0.17	3.12500543362
pair_coeff	10	15	0.17	3.12500543362
pair_coeff	11	12	0.00125299640861	0.584539230885
pair_coeff	11	13	0.00293257565972	1.74983475421
pair_coeff	11	14	0.00412310562562	1.67499926189
pair_coeff	11	15	0.00412310562562	1.67499926189
pair_coeff	12	13	0.0367450676962	2.23437398509
pair_coeff	12	14	0.0516623654124	2.15953849277
pair_coeff	12	15	0.0516623654124	2.15953849277
pair_coeff	13	14	0.120913192002	3.3248340161
pair_coeff	13	15	0.120913192002	3.3248340161
pair_coeff	14	15	0.17	3.24999852378

dump            1 all custom 1000000 a.dump id type xs ys zs ix iy iz q
velocity 	all create 1000 123
fix	1 all nvt temp 300 300 100 tchain 3
fix 2 all qeq/dynamic 1 10 1.0e-3 100 param.qeq2

thermo_style	multi
thermo          100000
timestep	1
run		100000000
Generated 148 of 253 mixed pair_coeff terms from geometric mixing rule
WARNING: Fix qeq/dynamic group is not charge neutral, net charge = 2 (../fix_qeq.cpp:323)
Neighbor list info ...
  update every 1 steps, delay 10 steps, check yes
  max neighbors/atom: 2000, page size: 100000
  master list distance cutoff = 102
  ghost atom cutoff = 102
  binsize = 51, bins = 12 12 12
  2 neighbor lists, perpetual/occasional/extra = 2 0 0
  (1) pair lj/cut/coul/cut, perpetual
      attributes: half, newton on
      pair build: half/bin/newton
      stencil: half/bin/3d
      bin: standard
  (2) fix qeq/dynamic, perpetual, copy from (1)
      attributes: half, newton on
      pair build: copy
      stencil: none
      bin: none
Per MPI rank memory allocation (min/avg/max) = 18.25 | 18.25 | 18.25 Mbytes
------------ Step              0 ----- CPU =            0 (sec) -------------
TotEng   =       648.5467 KinEng   =       438.1791 Temp     =      1000.0000 
PotEng   =       210.3677 E_bond   =        14.9585 E_angle  =        72.1676 
E_dihed  =        56.8357 E_impro  =         0.0000 E_vdwl   =       102.1008 
E_coul   =       -35.6948 E_long   =         0.0000 Press    =         0.2330
------------ Step         100000 ----- CPU =     15.79867 (sec) -------------
TotEng   =       268.7679 KinEng   =       128.7154 Temp     =       293.7508 
PotEng   =       140.0525 E_bond   =        47.4786 E_angle  =        70.2306 
E_dihed  =        95.5663 E_impro  =         0.0000 E_vdwl   =       -23.0309 
E_coul   =       -50.1921 E_long   =         0.0000 Press    =         0.0521
------------ Step         200000 ----- CPU =     31.69163 (sec) -------------
TotEng   =       262.3565 KinEng   =       135.8355 Temp     =       310.0000 
PotEng   =       126.5210 E_bond   =        46.0543 E_angle  =        77.0184 
E_dihed  =        83.4162 E_impro  =         0.0000 E_vdwl   =       -19.6746 
E_coul   =       -60.2933 E_long   =         0.0000 Press    =        -0.0144
------------ Step         300000 ----- CPU =     47.44873 (sec) -------------
TotEng   =       261.9705 KinEng   =       120.8010 Temp     =       275.6886 
PotEng   =       141.1695 E_bond   =        49.5649 E_angle  =        92.3842 
E_dihed  =        82.2315 E_impro  =         0.0000 E_vdwl   =       -25.1029 
E_coul   =       -57.9083 E_long   =         0.0000 Press    =         0.0229
------------ Step         400000 ----- CPU =     63.87804 (sec) -------------
TotEng   =       269.8123 KinEng   =       141.8796 Temp     =       323.7936 
PotEng   =       127.9327 E_bond   =        39.1483 E_angle  =        86.9159 
E_dihed  =        82.6264 E_impro  =         0.0000 E_vdwl   =       -22.5110 
E_coul   =       -58.2469 E_long   =         0.0000 Press    =        -0.0064
------------ Step         500000 ----- CPU =     79.99003 (sec) -------------
TotEng   =       277.6926 KinEng   =       133.9075 Temp     =       305.6000 
PotEng   =       143.7851 E_bond   =        52.6554 E_angle  =        77.0197 
E_dihed  =        92.0074 E_impro  =         0.0000 E_vdwl   =       -17.4552 
E_coul   =       -60.4422 E_long   =         0.0000 Press    =         0.0540
------------ Step         600000 ----- CPU =     95.69446 (sec) -------------
TotEng   =       266.9688 KinEng   =       143.5236 Temp     =       327.5454 
PotEng   =       123.4452 E_bond   =        50.0323 E_angle  =        81.9688 
E_dihed  =        84.7906 E_impro  =         0.0000 E_vdwl   =       -16.6412 
E_coul   =       -76.7053 E_long   =         0.0000 Press    =        -0.0256
------------ Step         700000 ----- CPU =      111.445 (sec) -------------
TotEng   =       246.2365 KinEng   =       139.3682 Temp     =       318.0622 
PotEng   =       106.8683 E_bond   =        42.0810 E_angle  =        79.3351 
E_dihed  =        73.2990 E_impro  =         0.0000 E_vdwl   =       -22.1581 
E_coul   =       -65.6887 E_long   =         0.0000 Press    =        -0.0180
------------ Step         800000 ----- CPU =     127.1321 (sec) -------------
TotEng   =       252.3643 KinEng   =       136.3642 Temp     =       311.2065 
PotEng   =       116.0001 E_bond   =        49.0204 E_angle  =        71.5958 
E_dihed  =        72.1304 E_impro  =         0.0000 E_vdwl   =       -18.9672 
E_coul   =       -57.7794 E_long   =         0.0000 Press    =         0.0363
------------ Step         900000 ----- CPU =     142.9037 (sec) -------------
TotEng   =       246.9223 KinEng   =       130.5624 Temp     =       297.9660 
PotEng   =       116.3598 E_bond   =        46.3271 E_angle  =        69.7277 
E_dihed  =        78.4694 E_impro  =         0.0000 E_vdwl   =       -19.4088 
E_coul   =       -58.7555 E_long   =         0.0000 Press    =         0.0121
------------ Step        1000000 ----- CPU =     159.0489 (sec) -------------
TotEng   =       235.6044 KinEng   =       128.8067 Temp     =       293.9591 
PotEng   =       106.7976 E_bond   =        36.7352 E_angle  =        73.7423 
E_dihed  =        75.6953 E_impro  =         0.0000 E_vdwl   =       -18.0269 
E_coul   =       -61.3482 E_long   =         0.0000 Press    =         0.0076
------------ Step        1100000 ----- CPU =      175.035 (sec) -------------
TotEng   =       226.1821 KinEng   =       124.7869 Temp     =       284.7852 
PotEng   =       101.3952 E_bond   =        39.0232 E_angle  =        75.2043 
E_dihed  =        70.1519 E_impro  =         0.0000 E_vdwl   =       -21.1282 
E_coul   =       -61.8560 E_long   =         0.0000 Press    =         0.0074
------------ Step        1200000 ----- CPU =     191.2467 (sec) -------------
TotEng   =       243.8095 KinEng   =       125.4719 Temp     =       286.3485 
PotEng   =       118.3376 E_bond   =        44.9870 E_angle  =        79.6138 
E_dihed  =        72.4529 E_impro  =         0.0000 E_vdwl   =       -16.8393 
E_coul   =       -61.8770 E_long   =         0.0000 Press    =        -0.0510
------------ Step        1300000 ----- CPU =     207.6488 (sec) -------------
TotEng   =       238.8817 KinEng   =       127.7098 Temp     =       291.4558 
PotEng   =       111.1719 E_bond   =        48.6335 E_angle  =        67.7261 
E_dihed  =        74.5738 E_impro  =         0.0000 E_vdwl   =       -17.9676 
E_coul   =       -61.7939 E_long   =         0.0000 Press    =         0.0337
------------ Step        1400000 ----- CPU =     223.7738 (sec) -------------
TotEng   =       247.6831 KinEng   =       130.6178 Temp     =       298.0923 
PotEng   =       117.0652 E_bond   =        51.1400 E_angle  =        73.6531 
E_dihed  =        75.9979 E_impro  =         0.0000 E_vdwl   =       -20.9813 
E_coul   =       -62.7445 E_long   =         0.0000 Press    =        -0.0428
------------ Step        1500000 ----- CPU =     239.3949 (sec) -------------
TotEng   =       234.8998 KinEng   =       137.3466 Temp     =       313.4486 
PotEng   =        97.5531 E_bond   =        37.8025 E_angle  =        67.4886 
E_dihed  =        71.1857 E_impro  =         0.0000 E_vdwl   =       -21.3218 
E_coul   =       -57.6018 E_long   =         0.0000 Press    =         0.0279
------------ Step        1600000 ----- CPU =     255.3952 (sec) -------------
TotEng   =       240.2799 KinEng   =       142.8272 Temp     =       325.9563 
PotEng   =        97.4527 E_bond   =        37.3964 E_angle  =        68.3894 
E_dihed  =        73.4809 E_impro  =         0.0000 E_vdwl   =       -22.1974 
E_coul   =       -59.6166 E_long   =         0.0000 Press    =         0.0033
------------ Step        1700000 ----- CPU =     271.5967 (sec) -------------
TotEng   =       213.6145 KinEng   =       129.0785 Temp     =       294.5794 
PotEng   =        84.5359 E_bond   =        34.9370 E_angle  =        58.3805 
E_dihed  =        76.8895 E_impro  =         0.0000 E_vdwl   =       -23.3054 
E_coul   =       -62.3655 E_long   =         0.0000 Press    =        -0.0049
------------ Step        1800000 ----- CPU =     287.0376 (sec) -------------
TotEng   =       229.4171 KinEng   =       136.5946 Temp     =       311.7323 
PotEng   =        92.8225 E_bond   =        35.6671 E_angle  =        70.1408 
E_dihed  =        76.2546 E_impro  =         0.0000 E_vdwl   =       -21.5053 
E_coul   =       -67.7346 E_long   =         0.0000 Press    =         0.0240
------------ Step        1900000 ----- CPU =     302.4721 (sec) -------------
TotEng   =       214.9026 KinEng   =       126.4323 Temp     =       288.5404 
PotEng   =        88.4702 E_bond   =        40.9671 E_angle  =        60.3883 
E_dihed  =        72.3144 E_impro  =         0.0000 E_vdwl   =       -17.9152 
E_coul   =       -67.2843 E_long   =         0.0000 Press    =         0.0041
------------ Step        2000000 ----- CPU =     318.2359 (sec) -------------
TotEng   =       211.3188 KinEng   =       121.8889 Temp     =       278.1715 
PotEng   =        89.4299 E_bond   =        34.1453 E_angle  =        67.3328 
E_dihed  =        68.3212 E_impro  =         0.0000 E_vdwl   =       -19.9256 
E_coul   =       -60.4438 E_long   =         0.0000 Press    =        -0.0249
------------ Step        2100000 ----- CPU =      334.156 (sec) -------------
TotEng   =       223.8050 KinEng   =       144.6018 Temp     =       330.0063 
PotEng   =        79.2031 E_bond   =        30.5519 E_angle  =        61.9466 
E_dihed  =        68.5343 E_impro  =         0.0000 E_vdwl   =       -20.4163 
E_coul   =       -61.4134 E_long   =         0.0000 Press    =         0.0354
------------ Step        2200000 ----- CPU =     349.2073 (sec) -------------
TotEng   =       233.6559 KinEng   =       146.4183 Temp     =       334.1516 
PotEng   =        87.2377 E_bond   =        29.9729 E_angle  =        69.9907 
E_dihed  =        70.5932 E_impro  =         0.0000 E_vdwl   =       -22.4614 
E_coul   =       -60.8577 E_long   =         0.0000 Press    =        -0.0083
------------ Step        2300000 ----- CPU =     364.7045 (sec) -------------
TotEng   =       215.2785 KinEng   =       130.9056 Temp     =       298.7491 
PotEng   =        84.3729 E_bond   =        36.6039 E_angle  =        57.7350 
E_dihed  =        76.2708 E_impro  =         0.0000 E_vdwl   =       -21.3698 
E_coul   =       -64.8670 E_long   =         0.0000 Press    =         0.0179
------------ Step        2400000 ----- CPU =     380.0726 (sec) -------------
TotEng   =       205.1968 KinEng   =       130.3697 Temp     =       297.5260 
PotEng   =        74.8272 E_bond   =        26.5924 E_angle  =        56.6613 
E_dihed  =        73.7643 E_impro  =         0.0000 E_vdwl   =       -21.9653 
E_coul   =       -60.2255 E_long   =         0.0000 Press    =         0.0093
------------ Step        2500000 ----- CPU =     395.0099 (sec) -------------
TotEng   =       184.5017 KinEng   =       126.1230 Temp     =       287.8343 
PotEng   =        58.3787 E_bond   =        23.0671 E_angle  =        49.6063 
E_dihed  =        70.8077 E_impro  =         0.0000 E_vdwl   =       -24.9028 
E_coul   =       -60.1996 E_long   =         0.0000 Press    =         0.0021
------------ Step        2600000 ----- CPU =     410.1383 (sec) -------------
TotEng   =       189.1332 KinEng   =       131.2640 Temp     =       299.5671 
PotEng   =        57.8692 E_bond   =        22.2941 E_angle  =        52.9873 
E_dihed  =        74.0426 E_impro  =         0.0000 E_vdwl   =       -24.0561 
E_coul   =       -67.3987 E_long   =         0.0000 Press    =        -0.0075
------------ Step        2700000 ----- CPU =     424.6362 (sec) -------------
TotEng   =       200.7349 KinEng   =       120.5983 Temp     =       275.2261 
PotEng   =        80.1366 E_bond   =        21.5725 E_angle  =        52.3195 
E_dihed  =        71.1131 E_impro  =         0.0000 E_vdwl   =       -14.4586 
E_coul   =       -50.4098 E_long   =         0.0000 Press    =         0.0256
------------ Step        2800000 ----- CPU =     438.8335 (sec) -------------
TotEng   =       205.2186 KinEng   =       128.4467 Temp     =       293.1375 
PotEng   =        76.7719 E_bond   =        26.0291 E_angle  =        49.0342 
E_dihed  =        70.3157 E_impro  =         0.0000 E_vdwl   =       -16.6555 
E_coul   =       -51.9516 E_long   =         0.0000 Press    =         0.0080
------------ Step        2900000 ----- CPU =     452.5897 (sec) -------------
TotEng   =       203.7792 KinEng   =       136.9965 Temp     =       312.6497 
PotEng   =        66.7827 E_bond   =        21.1469 E_angle  =        48.9054 
E_dihed  =        70.5939 E_impro  =         0.0000 E_vdwl   =       -23.9466 
E_coul   =       -49.9170 E_long   =         0.0000 Press    =         0.0268
------------ Step        3000000 ----- CPU =     466.6636 (sec) -------------
TotEng   =       184.2138 KinEng   =       134.3560 Temp     =       306.6235 
PotEng   =        49.8578 E_bond   =        15.9723 E_angle  =        41.7036 
E_dihed  =        68.2748 E_impro  =         0.0000 E_vdwl   =       -20.7475 
E_coul   =       -55.3454 E_long   =         0.0000 Press    =         0.0211
------------ Step        3100000 ----- CPU =     479.7591 (sec) -------------
TotEng   =       190.9697 KinEng   =       143.5025 Temp     =       327.4974 
PotEng   =        47.4672 E_bond   =        15.2769 E_angle  =        37.5613 
E_dihed  =        68.0889 E_impro  =         0.0000 E_vdwl   =       -21.5515 
E_coul   =       -51.9084 E_long   =         0.0000 Press    =        -0.0005
------------ Step        3200000 ----- CPU =     492.5677 (sec) -------------
TotEng   =       190.1780 KinEng   =       145.4456 Temp     =       331.9320 
PotEng   =        44.7324 E_bond   =        13.9179 E_angle  =        37.9883 
E_dihed  =        66.6524 E_impro  =         0.0000 E_vdwl   =       -20.7099 
E_coul   =       -53.1163 E_long   =         0.0000 Press    =         0.0043
------------ Step        3300000 ----- CPU =     505.1509 (sec) -------------
TotEng   =       173.9697 KinEng   =       140.7845 Temp     =       321.2944 
PotEng   =        33.1852 E_bond   =        10.6524 E_angle  =        33.4725 
E_dihed  =        62.3808 E_impro  =         0.0000 E_vdwl   =       -20.5094 
E_coul   =       -52.8112 E_long   =         0.0000 Press    =         0.0091
------------ Step        3400000 ----- CPU =     517.3672 (sec) -------------
TotEng   =       164.9729 KinEng   =       131.3964 Temp     =       299.8691 
PotEng   =        33.5765 E_bond   =         9.6142 E_angle  =        32.9584 
E_dihed  =        65.0479 E_impro  =         0.0000 E_vdwl   =       -22.0699 
E_coul   =       -51.9740 E_long   =         0.0000 Press    =        -0.0084
------------ Step        3500000 ----- CPU =     529.5839 (sec) -------------
TotEng   =       170.8062 KinEng   =       134.9256 Temp     =       307.9234 
PotEng   =        35.8806 E_bond   =         9.2319 E_angle  =        33.7996 
E_dihed  =        64.4630 E_impro  =         0.0000 E_vdwl   =       -20.5260 
E_coul   =       -51.0879 E_long   =         0.0000 Press    =        -0.0010
------------ Step        3600000 ----- CPU =     541.4051 (sec) -------------
TotEng   =       167.4325 KinEng   =       136.0450 Temp     =       310.4780 
PotEng   =        31.3875 E_bond   =         9.5221 E_angle  =        28.9164 
E_dihed  =        64.9537 E_impro  =         0.0000 E_vdwl   =       -21.5427 
E_coul   =       -50.4618 E_long   =         0.0000 Press    =        -0.0104
------------ Step        3700000 ----- CPU =     553.1594 (sec) -------------
TotEng   =       176.9501 KinEng   =       143.9874 Temp     =       328.6039 
PotEng   =        32.9628 E_bond   =         7.9153 E_angle  =        29.7184 
E_dihed  =        65.8495 E_impro  =         0.0000 E_vdwl   =       -20.8146 
E_coul   =       -49.7059 E_long   =         0.0000 Press    =         0.0033
------------ Step        3800000 ----- CPU =     564.9142 (sec) -------------
TotEng   =       166.0561 KinEng   =       135.6097 Temp     =       309.4847 
PotEng   =        30.4464 E_bond   =         7.3955 E_angle  =        28.5213 
E_dihed  =        63.5508 E_impro  =         0.0000 E_vdwl   =       -20.1675 
E_coul   =       -48.8536 E_long   =         0.0000 Press    =         0.0103
------------ Step        3900000 ----- CPU =     576.6121 (sec) -------------
TotEng   =       171.2074 KinEng   =       141.2323 Temp     =       322.3165 
PotEng   =        29.9751 E_bond   =         7.3629 E_angle  =        30.4332 
E_dihed  =        62.9611 E_impro  =         0.0000 E_vdwl   =       -20.4710 
E_coul   =       -50.3113 E_long   =         0.0000 Press    =         0.0013
------------ Step        4000000 ----- CPU =     588.1156 (sec) -------------
TotEng   =       144.9858 KinEng   =       117.1800 Temp     =       267.4250 
PotEng   =        27.8057 E_bond   =         6.8742 E_angle  =        28.7635 
E_dihed  =        64.0430 E_impro  =         0.0000 E_vdwl   =       -20.7099 
E_coul   =       -51.1650 E_long   =         0.0000 Press    =        -0.0065
------------ Step        4100000 ----- CPU =     599.6317 (sec) -------------
TotEng   =       161.7194 KinEng   =       131.6627 Temp     =       300.4768 
PotEng   =        30.0567 E_bond   =         6.0146 E_angle  =        29.3927 
E_dihed  =        64.7992 E_impro  =         0.0000 E_vdwl   =       -21.3022 
E_coul   =       -48.8475 E_long   =         0.0000 Press    =        -0.0001
------------ Step        4200000 ----- CPU =     611.1653 (sec) -------------
TotEng   =       153.3007 KinEng   =       124.7462 Temp     =       284.6924 
PotEng   =        28.5545 E_bond   =         7.3807 E_angle  =        27.8666 
E_dihed  =        63.7855 E_impro  =         0.0000 E_vdwl   =       -20.5262 
E_coul   =       -49.9521 E_long   =         0.0000 Press    =        -0.0073
------------ Step        4300000 ----- CPU =     622.7003 (sec) -------------
TotEng   =       156.8856 KinEng   =       125.1762 Temp     =       285.6736 
PotEng   =        31.7094 E_bond   =         7.1906 E_angle  =        29.7793 
E_dihed  =        66.3212 E_impro  =         0.0000 E_vdwl   =       -20.2117 
E_coul   =       -51.3700 E_long   =         0.0000 Press    =         0.0004
------------ Step        4400000 ----- CPU =     634.1748 (sec) -------------
TotEng   =       165.6875 KinEng   =       138.2766 Temp     =       315.5710 
PotEng   =        27.4108 E_bond   =         6.5455 E_angle  =        28.1080 
E_dihed  =        64.0848 E_impro  =         0.0000 E_vdwl   =       -20.3950 
E_coul   =       -50.9325 E_long   =         0.0000 Press    =         0.0023
------------ Step        4500000 ----- CPU =     645.6849 (sec) -------------
TotEng   =       163.0229 KinEng   =       132.8120 Temp     =       303.0999 
PotEng   =        30.2109 E_bond   =         7.6427 E_angle  =        30.0023 
E_dihed  =        63.3489 E_impro  =         0.0000 E_vdwl   =       -20.3392 
E_coul   =       -50.4439 E_long   =         0.0000 Press    =        -0.0089
------------ Step        4600000 ----- CPU =     657.2686 (sec) -------------
TotEng   =       157.4748 KinEng   =       126.7579 Temp     =       289.2832 
PotEng   =        30.7170 E_bond   =         7.6905 E_angle  =        28.4273 
E_dihed  =        66.2164 E_impro  =         0.0000 E_vdwl   =       -21.6488 
E_coul   =       -49.9685 E_long   =         0.0000 Press    =        -0.0119
------------ Step        4700000 ----- CPU =     668.9003 (sec) -------------
TotEng   =       151.4452 KinEng   =       120.8518 Temp     =       275.8047 
PotEng   =        30.5934 E_bond   =         6.7256 E_angle  =        30.1552 
E_dihed  =        64.3175 E_impro  =         0.0000 E_vdwl   =       -20.9099 
E_coul   =       -49.6949 E_long   =         0.0000 Press    =        -0.0059
------------ Step        4800000 ----- CPU =     680.5082 (sec) -------------
TotEng   =       156.3582 KinEng   =       127.1418 Temp     =       290.1595 
PotEng   =        29.2164 E_bond   =         6.7374 E_angle  =        30.4296 
E_dihed  =        64.0885 E_impro  =         0.0000 E_vdwl   =       -21.4661 
E_coul   =       -50.5730 E_long   =         0.0000 Press    =        -0.0058
------------ Step        4900000 ----- CPU =     691.9702 (sec) -------------
TotEng   =       162.6987 KinEng   =       135.1593 Temp     =       308.4568 
PotEng   =        27.5394 E_bond   =         6.0494 E_angle  =        27.1894 
E_dihed  =        64.0851 E_impro  =         0.0000 E_vdwl   =       -20.6785 
E_coul   =       -49.1060 E_long   =         0.0000 Press    =         0.0083
------------ Step        5000000 ----- CPU =      703.519 (sec) -------------
TotEng   =       157.6773 KinEng   =       126.4575 Temp     =       288.5977 
PotEng   =        31.2198 E_bond   =         7.2313 E_angle  =        29.5055 
E_dihed  =        65.5989 E_impro  =         0.0000 E_vdwl   =       -21.0964 
E_coul   =       -50.0195 E_long   =         0.0000 Press    =        -0.0099
------------ Step        5100000 ----- CPU =     715.1399 (sec) -------------
TotEng   =       160.5627 KinEng   =       132.0063 Temp     =       301.2610 
PotEng   =        28.5564 E_bond   =         6.5482 E_angle  =        29.0645 
E_dihed  =        64.7227 E_impro  =         0.0000 E_vdwl   =       -21.0214 
E_coul   =       -50.7576 E_long   =         0.0000 Press    =        -0.0008
------------ Step        5200000 ----- CPU =     726.5713 (sec) -------------
TotEng   =       161.2163 KinEng   =       129.0303 Temp     =       294.4693 
PotEng   =        32.1860 E_bond   =         5.9816 E_angle  =        28.8872 
E_dihed  =        65.4462 E_impro  =         0.0000 E_vdwl   =       -18.8655 
E_coul   =       -49.2636 E_long   =         0.0000 Press    =         0.0042
------------ Step        5300000 ----- CPU =     738.0757 (sec) -------------
TotEng   =       162.1713 KinEng   =       130.1596 Temp     =       297.0467 
PotEng   =        32.0117 E_bond   =         6.3628 E_angle  =        29.7086 
E_dihed  =        67.2997 E_impro  =         0.0000 E_vdwl   =       -20.8859 
E_coul   =       -50.4735 E_long   =         0.0000 Press    =        -0.0049
------------ Step        5400000 ----- CPU =     749.7637 (sec) -------------
TotEng   =       147.6111 KinEng   =       120.1821 Temp     =       274.2763 
PotEng   =        27.4290 E_bond   =         7.0473 E_angle  =        28.8984 
E_dihed  =        64.3430 E_impro  =         0.0000 E_vdwl   =       -21.4704 
E_coul   =       -51.3892 E_long   =         0.0000 Press    =        -0.0008
------------ Step        5500000 ----- CPU =     761.2781 (sec) -------------
TotEng   =       160.2202 KinEng   =       129.9665 Temp     =       296.6059 
PotEng   =        30.2537 E_bond   =         7.6838 E_angle  =        30.1079 
E_dihed  =        64.2405 E_impro  =         0.0000 E_vdwl   =       -20.8111 
E_coul   =       -50.9674 E_long   =         0.0000 Press    =        -0.0097
------------ Step        5600000 ----- CPU =     772.8247 (sec) -------------
TotEng   =       168.4874 KinEng   =       139.4719 Temp     =       318.2988 
PotEng   =        29.0155 E_bond   =         6.7766 E_angle  =        31.1854 
E_dihed  =        63.7031 E_impro  =         0.0000 E_vdwl   =       -22.2580 
E_coul   =       -50.3915 E_long   =         0.0000 Press    =        -0.0072
------------ Step        5700000 ----- CPU =     784.5538 (sec) -------------
TotEng   =       149.2815 KinEng   =       120.4191 Temp     =       274.8170 
PotEng   =        28.8624 E_bond   =         6.0145 E_angle  =        29.5660 
E_dihed  =        63.4389 E_impro  =         0.0000 E_vdwl   =       -20.8416 
E_coul   =       -49.3155 E_long   =         0.0000 Press    =         0.0017
------------ Step        5800000 ----- CPU =       796.22 (sec) -------------
TotEng   =       166.7654 KinEng   =       135.8042 Temp     =       309.9286 
PotEng   =        30.9611 E_bond   =         6.5451 E_angle  =        30.6053 
E_dihed  =        64.3653 E_impro  =         0.0000 E_vdwl   =       -21.9426 
E_coul   =       -48.6121 E_long   =         0.0000 Press    =         0.0033
------------ Step        5900000 ----- CPU =     808.2167 (sec) -------------
TotEng   =       152.7596 KinEng   =       121.1997 Temp     =       276.5985 
PotEng   =        31.5599 E_bond   =         7.5475 E_angle  =        30.3945 
E_dihed  =        64.1933 E_impro  =         0.0000 E_vdwl   =       -20.2796 
E_coul   =       -50.2958 E_long   =         0.0000 Press    =        -0.0151
------------ Step        6000000 ----- CPU =     820.1493 (sec) -------------
TotEng   =       157.1368 KinEng   =       129.3418 Temp     =       295.1802 
PotEng   =        27.7951 E_bond   =         6.8923 E_angle  =        28.3484 
E_dihed  =        63.7430 E_impro  =         0.0000 E_vdwl   =       -20.6925 
E_coul   =       -50.4962 E_long   =         0.0000 Press    =        -0.0063
------------ Step        6100000 ----- CPU =     832.2267 (sec) -------------
TotEng   =       165.4700 KinEng   =       138.1551 Temp     =       315.2938 
PotEng   =        27.3149 E_bond   =         6.1527 E_angle  =        29.2450 
E_dihed  =        64.7251 E_impro  =         0.0000 E_vdwl   =       -21.8428 
E_coul   =       -50.9652 E_long   =         0.0000 Press    =        -0.0004
------------ Step        6200000 ----- CPU =     843.6815 (sec) -------------
TotEng   =       153.8259 KinEng   =       125.6769 Temp     =       286.8162 
PotEng   =        28.1491 E_bond   =         5.8635 E_angle  =        27.2693 
E_dihed  =        64.4740 E_impro  =         0.0000 E_vdwl   =       -19.7369 
E_coul   =       -49.7209 E_long   =         0.0000 Press    =         0.0033
------------ Step        6300000 ----- CPU =     855.2605 (sec) -------------
TotEng   =       157.3233 KinEng   =       132.3854 Temp     =       302.1261 
PotEng   =        24.9379 E_bond   =         5.9408 E_angle  =        26.4867 
E_dihed  =        65.4215 E_impro  =         0.0000 E_vdwl   =       -21.6383 
E_coul   =       -51.2729 E_long   =         0.0000 Press    =         0.0012
------------ Step        6400000 ----- CPU =      866.683 (sec) -------------
TotEng   =       158.7743 KinEng   =       130.3536 Temp     =       297.4894 
PotEng   =        28.4207 E_bond   =         6.1181 E_angle  =        30.3061 
E_dihed  =        63.9997 E_impro  =         0.0000 E_vdwl   =       -20.7794 
E_coul   =       -51.2239 E_long   =         0.0000 Press    =         0.0061
------------ Step        6500000 ----- CPU =     878.1462 (sec) -------------
TotEng   =       168.1183 KinEng   =       138.5311 Temp     =       316.1518 
PotEng   =        29.5872 E_bond   =         5.5270 E_angle  =        27.4234 
E_dihed  =        64.9548 E_impro  =         0.0000 E_vdwl   =       -17.9428 
E_coul   =       -50.3752 E_long   =         0.0000 Press    =         0.0221
------------ Step        6600000 ----- CPU =     889.7559 (sec) -------------
TotEng   =       162.8616 KinEng   =       133.8096 Temp     =       305.3765 
PotEng   =        29.0520 E_bond   =         6.9639 E_angle  =        27.9965 
E_dihed  =        66.8716 E_impro  =         0.0000 E_vdwl   =       -22.4457 
E_coul   =       -50.3344 E_long   =         0.0000 Press    =         0.0046
------------ Step        6700000 ----- CPU =       901.26 (sec) -------------
TotEng   =       167.2116 KinEng   =       136.8857 Temp     =       312.3967 
PotEng   =        30.3259 E_bond   =         6.5087 E_angle  =        29.0411 
E_dihed  =        66.0498 E_impro  =         0.0000 E_vdwl   =       -21.3095 
E_coul   =       -49.9643 E_long   =         0.0000 Press    =        -0.0017
------------ Step        6800000 ----- CPU =     912.7643 (sec) -------------
TotEng   =       158.5417 KinEng   =       128.0516 Temp     =       292.2357 
PotEng   =        30.4902 E_bond   =         5.3493 E_angle  =        28.6571 
E_dihed  =        65.7876 E_impro  =         0.0000 E_vdwl   =       -18.7815 
E_coul   =       -50.5223 E_long   =         0.0000 Press    =         0.0067
------------ Step        6900000 ----- CPU =     924.4451 (sec) -------------
TotEng   =       158.5897 KinEng   =       127.6836 Temp     =       291.3959 
PotEng   =        30.9061 E_bond   =         6.3036 E_angle  =        29.0303 
E_dihed  =        66.0966 E_impro  =         0.0000 E_vdwl   =       -20.2816 
E_coul   =       -50.2429 E_long   =         0.0000 Press    =         0.0065
------------ Step        7000000 ----- CPU =     936.2304 (sec) -------------
TotEng   =       160.7051 KinEng   =       129.4672 Temp     =       295.4664 
PotEng   =        31.2379 E_bond   =         6.0554 E_angle  =        30.7054 
E_dihed  =        65.6382 E_impro  =         0.0000 E_vdwl   =       -21.5912 
E_coul   =       -49.5699 E_long   =         0.0000 Press    =         0.0050
------------ Step        7100000 ----- CPU =     947.9001 (sec) -------------
TotEng   =       159.5266 KinEng   =       130.0104 Temp     =       296.7060 
PotEng   =        29.5163 E_bond   =         6.3676 E_angle  =        28.4025 
E_dihed  =        65.3016 E_impro  =         0.0000 E_vdwl   =       -20.9801 
E_coul   =       -49.5753 E_long   =         0.0000 Press    =         0.0011
------------ Step        7200000 ----- CPU =     959.3698 (sec) -------------
TotEng   =       150.2083 KinEng   =       123.7063 Temp     =       282.3190 
PotEng   =        26.5021 E_bond   =         6.1624 E_angle  =        29.8755 
E_dihed  =        63.3670 E_impro  =         0.0000 E_vdwl   =       -21.1861 
E_coul   =       -51.7168 E_long   =         0.0000 Press    =         0.0008
------------ Step        7300000 ----- CPU =     970.7779 (sec) -------------
TotEng   =       160.4599 KinEng   =       131.2444 Temp     =       299.5223 
PotEng   =        29.2155 E_bond   =         6.6024 E_angle  =        29.3238 
E_dihed  =        66.4269 E_impro  =         0.0000 E_vdwl   =       -21.4115 
E_coul   =       -51.7260 E_long   =         0.0000 Press    =         0.0018
------------ Step        7400000 ----- CPU =     982.1926 (sec) -------------
TotEng   =       161.3776 KinEng   =       130.2002 Temp     =       297.1393 
PotEng   =        31.1774 E_bond   =         6.9128 E_angle  =        28.6725 
E_dihed  =        65.8794 E_impro  =         0.0000 E_vdwl   =       -21.4746 
E_coul   =       -48.8126 E_long   =         0.0000 Press    =        -0.0129
------------ Step        7500000 ----- CPU =     993.6377 (sec) -------------
TotEng   =       153.8169 KinEng   =       122.4796 Temp     =       279.5195 
PotEng   =        31.3373 E_bond   =         5.2742 E_angle  =        28.8185 
E_dihed  =        68.2105 E_impro  =         0.0000 E_vdwl   =       -20.9099 
E_coul   =       -50.0561 E_long   =         0.0000 Press    =         0.0059
------------ Step        7600000 ----- CPU =      1005.14 (sec) -------------
TotEng   =       159.6026 KinEng   =       131.8324 Temp     =       300.8641 
PotEng   =        27.7703 E_bond   =         5.5409 E_angle  =        27.7557 
E_dihed  =        66.6567 E_impro  =         0.0000 E_vdwl   =       -21.8269 
E_coul   =       -50.3561 E_long   =         0.0000 Press    =         0.0049
------------ Step        7700000 ----- CPU =      1016.72 (sec) -------------
TotEng   =       148.6330 KinEng   =       120.0958 Temp     =       274.0793 
PotEng   =        28.5372 E_bond   =         6.0461 E_angle  =        29.6211 
E_dihed  =        65.1745 E_impro  =         0.0000 E_vdwl   =       -20.8338 
E_coul   =       -51.4707 E_long   =         0.0000 Press    =         0.0028
------------ Step        7800000 ----- CPU =     1028.306 (sec) -------------
TotEng   =       153.7979 KinEng   =       123.1767 Temp     =       281.1104 
PotEng   =        30.6212 E_bond   =         6.4325 E_angle  =        29.3607 
E_dihed  =        64.8384 E_impro  =         0.0000 E_vdwl   =       -21.6245 
E_coul   =       -48.3858 E_long   =         0.0000 Press    =         0.0096
------------ Step        7900000 ----- CPU =     1039.867 (sec) -------------
TotEng   =       165.9002 KinEng   =       133.8651 Temp     =       305.5033 
PotEng   =        32.0350 E_bond   =         6.1601 E_angle  =        28.5973 
E_dihed  =        66.6751 E_impro  =         0.0000 E_vdwl   =       -20.7555 
E_coul   =       -48.6420 E_long   =         0.0000 Press    =         0.0068
------------ Step        8000000 ----- CPU =     1051.337 (sec) -------------
TotEng   =       150.6496 KinEng   =       120.9255 Temp     =       275.9728 
PotEng   =        29.7241 E_bond   =         6.9634 E_angle  =        28.9150 
E_dihed  =        64.2376 E_impro  =         0.0000 E_vdwl   =       -21.7299 
E_coul   =       -48.6620 E_long   =         0.0000 Press    =        -0.0102
------------ Step        8100000 ----- CPU =     1062.788 (sec) -------------
TotEng   =       172.9644 KinEng   =       144.7016 Temp     =       330.2340 
PotEng   =        28.2627 E_bond   =         5.9725 E_angle  =        29.9685 
E_dihed  =        63.8510 E_impro  =         0.0000 E_vdwl   =       -21.2103 
E_coul   =       -50.3190 E_long   =         0.0000 Press    =         0.0080
------------ Step        8200000 ----- CPU =     1074.267 (sec) -------------
TotEng   =       156.2431 KinEng   =       127.8518 Temp     =       291.7797 
PotEng   =        28.3914 E_bond   =         6.1406 E_angle  =        28.9871 
E_dihed  =        65.0097 E_impro  =         0.0000 E_vdwl   =       -19.8866 
E_coul   =       -51.8594 E_long   =         0.0000 Press    =         0.0056
------------ Step        8300000 ----- CPU =     1085.758 (sec) -------------
TotEng   =       150.4737 KinEng   =       121.3599 Temp     =       276.9642 
PotEng   =        29.1138 E_bond   =         6.0358 E_angle  =        28.9797 
E_dihed  =        63.7783 E_impro  =         0.0000 E_vdwl   =       -19.1478 
E_coul   =       -50.5322 E_long   =         0.0000 Press    =         0.0110
------------ Step        8400000 ----- CPU =     1097.227 (sec) -------------
TotEng   =       162.3055 KinEng   =       132.9912 Temp     =       303.5088 
PotEng   =        29.3143 E_bond   =         6.7509 E_angle  =        30.6097 
E_dihed  =        64.0749 E_impro  =         0.0000 E_vdwl   =       -20.2294 
E_coul   =       -51.8918 E_long   =         0.0000 Press    =         0.0019
------------ Step        8500000 ----- CPU =      1108.75 (sec) -------------
TotEng   =       151.8482 KinEng   =       119.4652 Temp     =       272.6402 
PotEng   =        32.3830 E_bond   =         7.3187 E_angle  =        30.2361 
E_dihed  =        66.6847 E_impro  =         0.0000 E_vdwl   =       -22.3983 
E_coul   =       -49.4581 E_long   =         0.0000 Press    =        -0.0042
------------ Step        8600000 ----- CPU =     1120.273 (sec) -------------
TotEng   =       164.0192 KinEng   =       133.4791 Temp     =       304.6222 
PotEng   =        30.5402 E_bond   =         6.5563 E_angle  =        31.7163 
E_dihed  =        63.9807 E_impro  =         0.0000 E_vdwl   =       -20.9352 
E_coul   =       -50.7780 E_long   =         0.0000 Press    =        -0.0009
------------ Step        8700000 ----- CPU =     1131.784 (sec) -------------
TotEng   =       161.2403 KinEng   =       131.2100 Temp     =       299.4439 
PotEng   =        30.0303 E_bond   =         6.7975 E_angle  =        29.6961 
E_dihed  =        64.6777 E_impro  =         0.0000 E_vdwl   =       -22.1135 
E_coul   =       -49.0276 E_long   =         0.0000 Press    =        -0.0075
------------ Step        8800000 ----- CPU =     1143.315 (sec) -------------
TotEng   =       158.9978 KinEng   =       126.3332 Temp     =       288.3140 
PotEng   =        32.6646 E_bond   =         7.3697 E_angle  =        30.0207 
E_dihed  =        66.1470 E_impro  =         0.0000 E_vdwl   =       -21.3285 
E_coul   =       -49.5442 E_long   =         0.0000 Press    =        -0.0076
------------ Step        8900000 ----- CPU =      1154.85 (sec) -------------
TotEng   =       169.9102 KinEng   =       138.3072 Temp     =       315.6408 
PotEng   =        31.6030 E_bond   =         5.6825 E_angle  =        30.1604 
E_dihed  =        66.4922 E_impro  =         0.0000 E_vdwl   =       -19.9771 
E_coul   =       -50.7550 E_long   =         0.0000 Press    =         0.0060
------------ Step        9000000 ----- CPU =     1166.299 (sec) -------------
TotEng   =       158.5949 KinEng   =       129.6923 Temp     =       295.9800 
PotEng   =        28.9026 E_bond   =         6.3584 E_angle  =        28.9265 
E_dihed  =        66.2055 E_impro  =         0.0000 E_vdwl   =       -22.1170 
E_coul   =       -50.4708 E_long   =         0.0000 Press    =         0.0049
------------ Step        9100000 ----- CPU =     1177.777 (sec) -------------
TotEng   =       163.3085 KinEng   =       135.7394 Temp     =       309.7806 
PotEng   =        27.5692 E_bond   =         6.5588 E_angle  =        28.4377 
E_dihed  =        65.5245 E_impro  =         0.0000 E_vdwl   =       -22.4582 
E_coul   =       -50.4937 E_long   =         0.0000 Press    =        -0.0082
------------ Step        9200000 ----- CPU =     1189.537 (sec) -------------
TotEng   =       141.3013 KinEng   =       113.1487 Temp     =       258.2248 
PotEng   =        28.1526 E_bond   =         5.1938 E_angle  =        29.5369 
E_dihed  =        64.9767 E_impro  =         0.0000 E_vdwl   =       -20.3796 
E_coul   =       -51.1752 E_long   =         0.0000 Press    =         0.0048
------------ Step        9300000 ----- CPU =     1201.108 (sec) -------------
TotEng   =       173.1159 KinEng   =       140.9622 Temp     =       321.6999 
PotEng   =        32.1537 E_bond   =         6.8026 E_angle  =        30.0643 
E_dihed  =        66.3319 E_impro  =         0.0000 E_vdwl   =       -20.8664 
E_coul   =       -50.1786 E_long   =         0.0000 Press    =         0.0069
------------ Step        9400000 ----- CPU =     1212.743 (sec) -------------
TotEng   =       157.3038 KinEng   =       127.3838 Temp     =       290.7117 
PotEng   =        29.9200 E_bond   =         6.2213 E_angle  =        29.8921 
E_dihed  =        65.3198 E_impro  =         0.0000 E_vdwl   =       -20.9807 
E_coul   =       -50.5325 E_long   =         0.0000 Press    =         0.0048
------------ Step        9500000 ----- CPU =     1224.686 (sec) -------------
TotEng   =       164.3296 KinEng   =       135.7220 Temp     =       309.7410 
PotEng   =        28.6076 E_bond   =         6.4792 E_angle  =        28.6931 
E_dihed  =        64.3762 E_impro  =         0.0000 E_vdwl   =       -20.2667 
E_coul   =       -50.6743 E_long   =         0.0000 Press    =         0.0037
------------ Step        9600000 ----- CPU =     1236.551 (sec) -------------
TotEng   =       173.9171 KinEng   =       145.4968 Temp     =       332.0486 
PotEng   =        28.4204 E_bond   =         6.4562 E_angle  =        28.5830 
E_dihed  =        64.3817 E_impro  =         0.0000 E_vdwl   =       -19.8448 
E_coul   =       -51.1558 E_long   =         0.0000 Press    =        -0.0010
------------ Step        9700000 ----- CPU =     1248.603 (sec) -------------
TotEng   =       166.4724 KinEng   =       136.8054 Temp     =       312.2134 
PotEng   =        29.6670 E_bond   =         6.3819 E_angle  =        30.1474 
E_dihed  =        64.2794 E_impro  =         0.0000 E_vdwl   =       -21.6233 
E_coul   =       -49.5184 E_long   =         0.0000 Press    =        -0.0054
------------ Step        9800000 ----- CPU =     1260.433 (sec) -------------
TotEng   =       167.8233 KinEng   =       136.6281 Temp     =       311.8087 
PotEng   =        31.1952 E_bond   =         5.9735 E_angle  =        30.2477 
E_dihed  =        65.3859 E_impro  =         0.0000 E_vdwl   =       -21.0041 
E_coul   =       -49.4079 E_long   =         0.0000 Press    =         0.0084
------------ Step        9900000 ----- CPU =     1272.182 (sec) -------------
TotEng   =       169.7401 KinEng   =       139.2617 Temp     =       317.8190 
PotEng   =        30.4785 E_bond   =         5.7755 E_angle  =        29.6327 
E_dihed  =        66.3257 E_impro  =         0.0000 E_vdwl   =       -20.9714 
E_coul   =       -50.2840 E_long   =         0.0000 Press    =         0.0121
------------ Step       10000000 ----- CPU =     1283.698 (sec) -------------
TotEng   =       151.8965 KinEng   =       124.2632 Temp     =       283.5901 
PotEng   =        27.6332 E_bond   =         6.1968 E_angle  =        27.6018 
E_dihed  =        65.2967 E_impro  =         0.0000 E_vdwl   =       -22.4361 
E_coul   =       -49.0259 E_long   =         0.0000 Press    =        -0.0005
------------ Step       10100000 ----- CPU =     1295.218 (sec) -------------
TotEng   =       155.1555 KinEng   =       123.1597 Temp     =       281.0715 
PotEng   =        31.9958 E_bond   =         7.6437 E_angle  =        32.3765 
E_dihed  =        63.3303 E_impro  =         0.0000 E_vdwl   =       -20.3767 
E_coul   =       -50.9780 E_long   =         0.0000 Press    =        -0.0113
------------ Step       10200000 ----- CPU =      1306.78 (sec) -------------
TotEng   =       158.1960 KinEng   =       129.6715 Temp     =       295.9326 
PotEng   =        28.5245 E_bond   =         6.5690 E_angle  =        27.9882 
E_dihed  =        65.1386 E_impro  =         0.0000 E_vdwl   =       -21.6983 
E_coul   =       -49.4730 E_long   =         0.0000 Press    =        -0.0038
------------ Step       10300000 ----- CPU =     1318.276 (sec) -------------
TotEng   =       170.5760 KinEng   =       145.1886 Temp     =       331.3453 
PotEng   =        25.3874 E_bond   =         6.8447 E_angle  =        28.2122 
E_dihed  =        63.6443 E_impro  =         0.0000 E_vdwl   =       -22.5594 
E_coul   =       -50.7543 E_long   =         0.0000 Press    =         0.0003
------------ Step       10400000 ----- CPU =      1329.77 (sec) -------------
TotEng   =       160.0169 KinEng   =       130.5589 Temp     =       297.9579 
PotEng   =        29.4580 E_bond   =         6.3770 E_angle  =        28.6555 
E_dihed  =        66.5593 E_impro  =         0.0000 E_vdwl   =       -22.6696 
E_coul   =       -49.4643 E_long   =         0.0000 Press    =         0.0027
------------ Step       10500000 ----- CPU =     1341.268 (sec) -------------
TotEng   =       159.3552 KinEng   =       129.4661 Temp     =       295.4638 
PotEng   =        29.8892 E_bond   =         6.6975 E_angle  =        29.7856 
E_dihed  =        64.3729 E_impro  =         0.0000 E_vdwl   =       -20.8757 
E_coul   =       -50.0910 E_long   =         0.0000 Press    =        -0.0041
------------ Step       10600000 ----- CPU =     1352.723 (sec) -------------
TotEng   =       157.2101 KinEng   =       127.6857 Temp     =       291.4007 
PotEng   =        29.5244 E_bond   =         5.8841 E_angle  =        28.9300 
E_dihed  =        64.7903 E_impro  =         0.0000 E_vdwl   =       -20.2499 
E_coul   =       -49.8302 E_long   =         0.0000 Press    =         0.0053
------------ Step       10700000 ----- CPU =     1364.282 (sec) -------------
TotEng   =       153.4509 KinEng   =       124.6142 Temp     =       284.3910 
PotEng   =        28.8367 E_bond   =         6.1596 E_angle  =        29.4298 
E_dihed  =        67.2313 E_impro  =         0.0000 E_vdwl   =       -22.1514 
E_coul   =       -51.8326 E_long   =         0.0000 Press    =        -0.0070
------------ Step       10800000 ----- CPU =     1375.856 (sec) -------------
TotEng   =       174.3154 KinEng   =       142.6426 Temp     =       325.5350 
PotEng   =        31.6728 E_bond   =         6.9717 E_angle  =        29.8144 
E_dihed  =        65.8678 E_impro  =         0.0000 E_vdwl   =       -19.9322 
E_coul   =       -51.0489 E_long   =         0.0000 Press    =        -0.0013
------------ Step       10900000 ----- CPU =     1387.468 (sec) -------------
TotEng   =       159.4728 KinEng   =       129.3923 Temp     =       295.2955 
PotEng   =        30.0805 E_bond   =         6.7979 E_angle  =        29.8104 
E_dihed  =        65.7344 E_impro  =         0.0000 E_vdwl   =       -21.9753 
E_coul   =       -50.2869 E_long   =         0.0000 Press    =        -0.0067
------------ Step       11000000 ----- CPU =     1399.024 (sec) -------------
TotEng   =       141.7315 KinEng   =       111.8811 Temp     =       255.3319 
PotEng   =        29.8504 E_bond   =         7.5299 E_angle  =        29.5837 
E_dihed  =        64.9654 E_impro  =         0.0000 E_vdwl   =       -22.2152 
E_coul   =       -50.0134 E_long   =         0.0000 Press    =        -0.0211
------------ Step       11100000 ----- CPU =     1410.718 (sec) -------------
TotEng   =       157.7793 KinEng   =       127.9219 Temp     =       291.9397 
PotEng   =        29.8574 E_bond   =         6.5586 E_angle  =        30.2434 
E_dihed  =        64.1774 E_impro  =         0.0000 E_vdwl   =       -20.3976 
E_coul   =       -50.7244 E_long   =         0.0000 Press    =        -0.0041
------------ Step       11200000 ----- CPU =     1422.223 (sec) -------------
TotEng   =       134.8615 KinEng   =       105.8535 Temp     =       241.5760 
PotEng   =        29.0080 E_bond   =         6.4685 E_angle  =        31.4381 
E_dihed  =        62.7718 E_impro  =         0.0000 E_vdwl   =       -20.9217 
E_coul   =       -50.7488 E_long   =         0.0000 Press    =        -0.0105
------------ Step       11300000 ----- CPU =     1433.689 (sec) -------------
TotEng   =       153.7928 KinEng   =       126.6242 Temp     =       288.9783 
PotEng   =        27.1686 E_bond   =         5.6464 E_angle  =        29.6085 
E_dihed  =        63.9451 E_impro  =         0.0000 E_vdwl   =       -20.4474 
E_coul   =       -51.5840 E_long   =         0.0000 Press    =         0.0055
------------ Step       11400000 ----- CPU =     1445.174 (sec) -------------
TotEng   =       166.1937 KinEng   =       137.7321 Temp     =       314.3283 
PotEng   =        28.4616 E_bond   =         5.6081 E_angle  =        27.8344 
E_dihed  =        67.3711 E_impro  =         0.0000 E_vdwl   =       -23.6525 
E_coul   =       -48.6996 E_long   =         0.0000 Press    =         0.0005
------------ Step       11500000 ----- CPU =       1456.7 (sec) -------------
TotEng   =       160.6718 KinEng   =       131.5965 Temp     =       300.3259 
PotEng   =        29.0752 E_bond   =         6.9577 E_angle  =        29.2030 
E_dihed  =        65.5163 E_impro  =         0.0000 E_vdwl   =       -22.4181 
E_coul   =       -50.1838 E_long   =         0.0000 Press    =        -0.0018
------------ Step       11600000 ----- CPU =     1468.168 (sec) -------------
TotEng   =       164.8237 KinEng   =       138.6327 Temp     =       316.3836 
PotEng   =        26.1911 E_bond   =         6.4173 E_angle  =        28.2867 
E_dihed  =        65.4556 E_impro  =         0.0000 E_vdwl   =       -23.5447 
E_coul   =       -50.4239 E_long   =         0.0000 Press    =         0.0015
------------ Step       11700000 ----- CPU =     1479.623 (sec) -------------
TotEng   =       154.5847 KinEng   =       124.7479 Temp     =       284.6961 
PotEng   =        29.8368 E_bond   =         5.6419 E_angle  =        28.7910 
E_dihed  =        66.9425 E_impro  =         0.0000 E_vdwl   =       -21.0837 
E_coul   =       -50.4550 E_long   =         0.0000 Press    =         0.0068
------------ Step       11800000 ----- CPU =     1491.089 (sec) -------------
TotEng   =       173.1486 KinEng   =       141.2750 Temp     =       322.4137 
PotEng   =        31.8736 E_bond   =         7.9846 E_angle  =        30.8408 
E_dihed  =        64.6751 E_impro  =         0.0000 E_vdwl   =       -20.9405 
E_coul   =       -50.6864 E_long   =         0.0000 Press    =        -0.0098
------------ Step       11900000 ----- CPU =     1502.609 (sec) -------------
TotEng   =       154.4409 KinEng   =       122.8175 Temp     =       280.2907 
PotEng   =        31.6233 E_bond   =         6.8819 E_angle  =        27.9445 
E_dihed  =        66.2167 E_impro  =         0.0000 E_vdwl   =       -20.7578 
E_coul   =       -48.6620 E_long   =         0.0000 Press    =        -0.0056
------------ Step       12000000 ----- CPU =     1514.102 (sec) -------------
TotEng   =       152.6993 KinEng   =       125.1154 Temp     =       285.5349 
PotEng   =        27.5839 E_bond   =         6.3109 E_angle  =        28.2070 
E_dihed  =        64.6209 E_impro  =         0.0000 E_vdwl   =       -20.6204 
E_coul   =       -50.9345 E_long   =         0.0000 Press    =        -0.0032
------------ Step       12100000 ----- CPU =     1525.581 (sec) -------------
TotEng   =       150.6990 KinEng   =       122.0612 Temp     =       278.5646 
PotEng   =        28.6379 E_bond   =         6.8501 E_angle  =        30.2616 
E_dihed  =        63.6187 E_impro  =         0.0000 E_vdwl   =       -21.4691 
E_coul   =       -50.6235 E_long   =         0.0000 Press    =        -0.0116
------------ Step       12200000 ----- CPU =      1537.08 (sec) -------------
TotEng   =       168.5293 KinEng   =       139.7980 Temp     =       319.0430 
PotEng   =        28.7314 E_bond   =         6.2905 E_angle  =        28.3212 
E_dihed  =        64.8413 E_impro  =         0.0000 E_vdwl   =       -20.5161 
E_coul   =       -50.2056 E_long   =         0.0000 Press    =         0.0033
------------ Step       12300000 ----- CPU =     1548.541 (sec) -------------
TotEng   =       165.8928 KinEng   =       136.3737 Temp     =       311.2282 
PotEng   =        29.5191 E_bond   =         6.6628 E_angle  =        30.3265 
E_dihed  =        64.3489 E_impro  =         0.0000 E_vdwl   =       -20.7014 
E_coul   =       -51.1177 E_long   =         0.0000 Press    =        -0.0062
------------ Step       12400000 ----- CPU =     1560.011 (sec) -------------
TotEng   =       153.0368 KinEng   =       126.9433 Temp     =       289.7064 
PotEng   =        26.0935 E_bond   =         5.5399 E_angle  =        27.7980 
E_dihed  =        65.0954 E_impro  =         0.0000 E_vdwl   =       -21.4602 
E_coul   =       -50.8796 E_long   =         0.0000 Press    =         0.0021
------------ Step       12500000 ----- CPU =     1571.595 (sec) -------------
TotEng   =       151.1069 KinEng   =       123.6081 Temp     =       282.0949 
PotEng   =        27.4988 E_bond   =         6.5696 E_angle  =        29.0036 
E_dihed  =        64.3603 E_impro  =         0.0000 E_vdwl   =       -21.5812 
E_coul   =       -50.8534 E_long   =         0.0000 Press    =        -0.0033
------------ Step       12600000 ----- CPU =     1583.038 (sec) -------------
TotEng   =       162.3459 KinEng   =       132.5557 Temp     =       302.5149 
PotEng   =        29.7901 E_bond   =         6.5814 E_angle  =        29.7988 
E_dihed  =        65.1282 E_impro  =         0.0000 E_vdwl   =       -22.6848 
E_coul   =       -49.0334 E_long   =         0.0000 Press    =        -0.0062
------------ Step       12700000 ----- CPU =     1594.501 (sec) -------------
TotEng   =       156.1227 KinEng   =       127.2679 Temp     =       290.4471 
PotEng   =        28.8549 E_bond   =         6.4005 E_angle  =        28.7453 
E_dihed  =        65.6807 E_impro  =         0.0000 E_vdwl   =       -22.4598 
E_coul   =       -49.5119 E_long   =         0.0000 Press    =        -0.0024
------------ Step       12800000 ----- CPU =     1605.971 (sec) -------------
TotEng   =       143.6066 KinEng   =       113.9108 Temp     =       259.9641 
PotEng   =        29.6958 E_bond   =         7.6476 E_angle  =        28.4190 
E_dihed  =        65.7514 E_impro  =         0.0000 E_vdwl   =       -22.3115 
E_coul   =       -49.8107 E_long   =         0.0000 Press    =        -0.0152
------------ Step       12900000 ----- CPU =     1617.435 (sec) -------------
TotEng   =       162.8420 KinEng   =       135.1873 Temp     =       308.5206 
PotEng   =        27.6547 E_bond   =         6.5782 E_angle  =        28.8676 
E_dihed  =        65.2619 E_impro  =         0.0000 E_vdwl   =       -21.7468 
E_coul   =       -51.3061 E_long   =         0.0000 Press    =        -0.0079
------------ Step       13000000 ----- CPU =     1628.868 (sec) -------------
TotEng   =       169.7736 KinEng   =       138.0828 Temp     =       315.1286 
PotEng   =        31.6908 E_bond   =         6.6376 E_angle  =        30.4253 
E_dihed  =        64.7722 E_impro  =         0.0000 E_vdwl   =       -20.1922 
E_coul   =       -49.9520 E_long   =         0.0000 Press    =         0.0015
------------ Step       13100000 ----- CPU =     1640.338 (sec) -------------
TotEng   =       153.2101 KinEng   =       126.8189 Temp     =       289.4226 
PotEng   =        26.3912 E_bond   =         5.6293 E_angle  =        28.2238 
E_dihed  =        63.8353 E_impro  =         0.0000 E_vdwl   =       -21.0790 
E_coul   =       -50.2181 E_long   =         0.0000 Press    =         0.0057
------------ Step       13200000 ----- CPU =     1651.842 (sec) -------------
TotEng   =       150.6536 KinEng   =       122.4603 Temp     =       279.4755 
PotEng   =        28.1933 E_bond   =         6.2648 E_angle  =        29.4476 
E_dihed  =        64.4811 E_impro  =         0.0000 E_vdwl   =       -20.2497 
E_coul   =       -51.7505 E_long   =         0.0000 Press    =        -0.0027
------------ Step       13300000 ----- CPU =      1663.38 (sec) -------------
TotEng   =       151.4850 KinEng   =       121.6753 Temp     =       277.6839 
PotEng   =        29.8098 E_bond   =         7.2068 E_angle  =        30.7190 
E_dihed  =        62.7226 E_impro  =         0.0000 E_vdwl   =       -20.3763 
E_coul   =       -50.4623 E_long   =         0.0000 Press    =        -0.0110
------------ Step       13400000 ----- CPU =     1674.891 (sec) -------------
TotEng   =       156.0053 KinEng   =       127.0645 Temp     =       289.9831 
PotEng   =        28.9407 E_bond   =         6.8855 E_angle  =        29.9812 
E_dihed  =        63.9419 E_impro  =         0.0000 E_vdwl   =       -21.9275 
E_coul   =       -49.9403 E_long   =         0.0000 Press    =         0.0004
------------ Step       13500000 ----- CPU =     1686.406 (sec) -------------
TotEng   =       178.0064 KinEng   =       146.4361 Temp     =       334.1923 
PotEng   =        31.5704 E_bond   =         6.9543 E_angle  =        29.6257 
E_dihed  =        67.2365 E_impro  =         0.0000 E_vdwl   =       -21.5376 
E_coul   =       -50.7085 E_long   =         0.0000 Press    =        -0.0052
------------ Step       13600000 ----- CPU =     1697.935 (sec) -------------
TotEng   =       160.3982 KinEng   =       127.7649 Temp     =       291.5815 
PotEng   =        32.6333 E_bond   =         7.4952 E_angle  =        31.5083 
E_dihed  =        64.5239 E_impro  =         0.0000 E_vdwl   =       -21.6973 
E_coul   =       -49.1968 E_long   =         0.0000 Press    =        -0.0095
------------ Step       13700000 ----- CPU =     1709.489 (sec) -------------
TotEng   =       158.6854 KinEng   =       130.8977 Temp     =       298.7310 
PotEng   =        27.7878 E_bond   =         5.3613 E_angle  =        28.2544 
E_dihed  =        64.4780 E_impro  =         0.0000 E_vdwl   =       -20.5470 
E_coul   =       -49.7590 E_long   =         0.0000 Press    =         0.0053
------------ Step       13800000 ----- CPU =     1721.031 (sec) -------------
TotEng   =       171.7655 KinEng   =       143.1690 Temp     =       326.7362 
PotEng   =        28.5965 E_bond   =         6.6386 E_angle  =        29.6473 
E_dihed  =        63.6116 E_impro  =         0.0000 E_vdwl   =       -21.5251 
E_coul   =       -49.7757 E_long   =         0.0000 Press    =         0.0023
------------ Step       13900000 ----- CPU =     1732.637 (sec) -------------
TotEng   =       153.7165 KinEng   =       123.7946 Temp     =       282.5207 
PotEng   =        29.9219 E_bond   =         5.7021 E_angle  =        30.1195 
E_dihed  =        67.0771 E_impro  =         0.0000 E_vdwl   =       -21.8820 
E_coul   =       -51.0947 E_long   =         0.0000 Press    =        -0.0039
------------ Step       14000000 ----- CPU =      1744.26 (sec) -------------
TotEng   =       161.6723 KinEng   =       133.5322 Temp     =       304.7433 
PotEng   =        28.1401 E_bond   =         6.4545 E_angle  =        28.5925 
E_dihed  =        64.2703 E_impro  =         0.0000 E_vdwl   =       -20.2853 
E_coul   =       -50.8919 E_long   =         0.0000 Press    =        -0.0036
------------ Step       14100000 ----- CPU =     1755.861 (sec) -------------
TotEng   =       162.6311 KinEng   =       133.3593 Temp     =       304.3489 
PotEng   =        29.2718 E_bond   =         5.9803 E_angle  =        30.3889 
E_dihed  =        64.2137 E_impro  =         0.0000 E_vdwl   =       -20.4665 
E_coul   =       -50.8445 E_long   =         0.0000 Press    =        -0.0032
------------ Step       14200000 ----- CPU =     1767.576 (sec) -------------
TotEng   =       163.4403 KinEng   =       132.7096 Temp     =       302.8662 
PotEng   =        30.7307 E_bond   =         6.7457 E_angle  =        30.0814 
E_dihed  =        64.7667 E_impro  =         0.0000 E_vdwl   =       -21.0052 
E_coul   =       -49.8579 E_long   =         0.0000 Press    =         0.0028
------------ Step       14300000 ----- CPU =     1779.473 (sec) -------------
TotEng   =       149.0894 KinEng   =       120.4199 Temp     =       274.8190 
PotEng   =        28.6694 E_bond   =         6.3963 E_angle  =        28.6461 
E_dihed  =        64.1168 E_impro  =         0.0000 E_vdwl   =       -21.0704 
E_coul   =       -49.4194 E_long   =         0.0000 Press    =        -0.0003
------------ Step       14400000 ----- CPU =     1791.014 (sec) -------------
TotEng   =       174.1049 KinEng   =       146.0214 Temp     =       333.2460 
PotEng   =        28.0834 E_bond   =         5.9366 E_angle  =        28.7318 
E_dihed  =        64.4347 E_impro  =         0.0000 E_vdwl   =       -21.3744 
E_coul   =       -49.6452 E_long   =         0.0000 Press    =         0.0088
------------ Step       14500000 ----- CPU =     1802.819 (sec) -------------
TotEng   =       168.3330 KinEng   =       140.1533 Temp     =       319.8539 
PotEng   =        28.1797 E_bond   =         5.9624 E_angle  =        27.7422 
E_dihed  =        65.0114 E_impro  =         0.0000 E_vdwl   =       -22.1901 
E_coul   =       -48.3462 E_long   =         0.0000 Press    =         0.0014
------------ Step       14600000 ----- CPU =     1814.514 (sec) -------------
TotEng   =       163.8756 KinEng   =       134.2998 Temp     =       306.4952 
PotEng   =        29.5758 E_bond   =         5.6581 E_angle  =        28.7548 
E_dihed  =        65.4607 E_impro  =         0.0000 E_vdwl   =       -20.0277 
E_coul   =       -50.2701 E_long   =         0.0000 Press    =         0.0110
------------ Step       14700000 ----- CPU =     1826.044 (sec) -------------
TotEng   =       151.7344 KinEng   =       122.7204 Temp     =       280.0691 
PotEng   =        29.0140 E_bond   =         5.9815 E_angle  =        29.1852 
E_dihed  =        64.5443 E_impro  =         0.0000 E_vdwl   =       -20.1135 
E_coul   =       -50.5835 E_long   =         0.0000 Press    =        -0.0016
------------ Step       14800000 ----- CPU =     1837.667 (sec) -------------
TotEng   =       156.6689 KinEng   =       126.6334 Temp     =       288.9992 
PotEng   =        30.0355 E_bond   =         7.2084 E_angle  =        30.1932 
E_dihed  =        65.0424 E_impro  =         0.0000 E_vdwl   =       -22.7777 
E_coul   =       -49.6308 E_long   =         0.0000 Press    =        -0.0090
------------ Step       14900000 ----- CPU =     1849.288 (sec) -------------
TotEng   =       156.8908 KinEng   =       126.4366 Temp     =       288.5501 
PotEng   =        30.4541 E_bond   =         6.5211 E_angle  =        28.9635 
E_dihed  =        65.5498 E_impro  =         0.0000 E_vdwl   =       -19.9708 
E_coul   =       -50.6094 E_long   =         0.0000 Press    =        -0.0001
------------ Step       15000000 ----- CPU =     1860.896 (sec) -------------
TotEng   =       154.1855 KinEng   =       124.0138 Temp     =       283.0207 
PotEng   =        30.1718 E_bond   =         5.9429 E_angle  =        29.8925 
E_dihed  =        64.4899 E_impro  =         0.0000 E_vdwl   =       -20.4616 
E_coul   =       -49.6919 E_long   =         0.0000 Press    =         0.0095
------------ Step       15100000 ----- CPU =     1872.379 (sec) -------------
TotEng   =       154.8404 KinEng   =       125.7467 Temp     =       286.9756 
PotEng   =        29.0937 E_bond   =         5.7411 E_angle  =        28.4798 
E_dihed  =        64.8952 E_impro  =         0.0000 E_vdwl   =       -20.2069 
E_coul   =       -49.8154 E_long   =         0.0000 Press    =         0.0048
------------ Step       15200000 ----- CPU =     1883.849 (sec) -------------
TotEng   =       165.0676 KinEng   =       135.5408 Temp     =       309.3274 
PotEng   =        29.5268 E_bond   =         6.1456 E_angle  =        29.3786 
E_dihed  =        65.2294 E_impro  =         0.0000 E_vdwl   =       -20.9208 
E_coul   =       -50.3060 E_long   =         0.0000 Press    =        -0.0026
------------ Step       15300000 ----- CPU =     1895.367 (sec) -------------
TotEng   =       167.8755 KinEng   =       137.1538 Temp     =       313.0086 
PotEng   =        30.7217 E_bond   =         7.4537 E_angle  =        27.6462 
E_dihed  =        65.4852 E_impro  =         0.0000 E_vdwl   =       -20.7855 
E_coul   =       -49.0779 E_long   =         0.0000 Press    =        -0.0021
------------ Step       15400000 ----- CPU =     1906.954 (sec) -------------
TotEng   =       147.9329 KinEng   =       118.5081 Temp     =       270.4558 
PotEng   =        29.4248 E_bond   =         6.2048 E_angle  =        29.9063 
E_dihed  =        65.4281 E_impro  =         0.0000 E_vdwl   =       -21.8446 
E_coul   =       -50.2699 E_long   =         0.0000 Press    =        -0.0041
------------ Step       15500000 ----- CPU =     1918.539 (sec) -------------
TotEng   =       167.5798 KinEng   =       136.7818 Temp     =       312.1595 
PotEng   =        30.7980 E_bond   =         6.4249 E_angle  =        30.7147 
E_dihed  =        64.8847 E_impro  =         0.0000 E_vdwl   =       -20.4991 
E_coul   =       -50.7271 E_long   =         0.0000 Press    =        -0.0030
------------ Step       15600000 ----- CPU =     1930.091 (sec) -------------
TotEng   =       156.7516 KinEng   =       130.2985 Temp     =       297.3636 
PotEng   =        26.4531 E_bond   =         5.2485 E_angle  =        27.4743 
E_dihed  =        65.8924 E_impro  =         0.0000 E_vdwl   =       -21.4536 
E_coul   =       -50.7085 E_long   =         0.0000 Press    =         0.0126
------------ Step       15700000 ----- CPU =     1941.567 (sec) -------------
TotEng   =       156.2417 KinEng   =       126.1413 Temp     =       287.8761 
PotEng   =        30.1005 E_bond   =         5.6375 E_angle  =        30.2228 
E_dihed  =        64.8848 E_impro  =         0.0000 E_vdwl   =       -20.8717 
E_coul   =       -49.7729 E_long   =         0.0000 Press    =         0.0053
------------ Step       15800000 ----- CPU =     1953.029 (sec) -------------
TotEng   =       144.1924 KinEng   =       116.9938 Temp     =       266.9999 
PotEng   =        27.1986 E_bond   =         5.7197 E_angle  =        28.0011 
E_dihed  =        64.9340 E_impro  =         0.0000 E_vdwl   =       -21.1176 
E_coul   =       -50.3386 E_long   =         0.0000 Press    =         0.0039
------------ Step       15900000 ----- CPU =     1964.575 (sec) -------------
TotEng   =       164.2301 KinEng   =       136.5122 Temp     =       311.5444 
PotEng   =        27.7178 E_bond   =         5.5021 E_angle  =        28.5061 
E_dihed  =        63.2979 E_impro  =         0.0000 E_vdwl   =       -19.2808 
E_coul   =       -50.3075 E_long   =         0.0000 Press    =         0.0138
------------ Step       16000000 ----- CPU =     1976.123 (sec) -------------
TotEng   =       175.8165 KinEng   =       146.0761 Temp     =       333.3708 
PotEng   =        29.7403 E_bond   =         6.9447 E_angle  =        28.2132 
E_dihed  =        64.7255 E_impro  =         0.0000 E_vdwl   =       -20.2907 
E_coul   =       -49.8523 E_long   =         0.0000 Press    =         0.0007
------------ Step       16100000 ----- CPU =      1987.71 (sec) -------------
TotEng   =       162.9050 KinEng   =       132.4135 Temp     =       302.1903 
PotEng   =        30.4915 E_bond   =         7.5812 E_angle  =        30.8111 
E_dihed  =        63.9317 E_impro  =         0.0000 E_vdwl   =       -20.5251 
E_coul   =       -51.3074 E_long   =         0.0000 Press    =        -0.0081
------------ Step       16200000 ----- CPU =     1999.206 (sec) -------------
TotEng   =       162.6684 KinEng   =       131.2568 Temp     =       299.5505 
PotEng   =        31.4117 E_bond   =         7.1697 E_angle  =        31.7327 
E_dihed  =        64.4462 E_impro  =         0.0000 E_vdwl   =       -22.0787 
E_coul   =       -49.8581 E_long   =         0.0000 Press    =        -0.0071
------------ Step       16300000 ----- CPU =     2010.748 (sec) -------------
TotEng   =       176.8603 KinEng   =       147.8891 Temp     =       337.5084 
PotEng   =        28.9712 E_bond   =         6.9662 E_angle  =        29.9856 
E_dihed  =        65.2975 E_impro  =         0.0000 E_vdwl   =       -20.6883 
E_coul   =       -52.5899 E_long   =         0.0000 Press    =        -0.0047
------------ Step       16400000 ----- CPU =     2022.321 (sec) -------------
TotEng   =       168.3193 KinEng   =       138.9392 Temp     =       317.0832 
PotEng   =        29.3801 E_bond   =         5.1638 E_angle  =        28.5424 
E_dihed  =        65.4939 E_impro  =         0.0000 E_vdwl   =       -19.4016 
E_coul   =       -50.4184 E_long   =         0.0000 Press    =         0.0066
------------ Step       16500000 ----- CPU =     2033.911 (sec) -------------
TotEng   =       150.5080 KinEng   =       121.7442 Temp     =       277.8412 
PotEng   =        28.7638 E_bond   =         6.1627 E_angle  =        28.6389 
E_dihed  =        64.8456 E_impro  =         0.0000 E_vdwl   =       -20.4789 
E_coul   =       -50.4044 E_long   =         0.0000 Press    =        -0.0014
------------ Step       16600000 ----- CPU =     2045.431 (sec) -------------
TotEng   =       160.3692 KinEng   =       130.5431 Temp     =       297.9219 
PotEng   =        29.8261 E_bond   =         6.1454 E_angle  =        30.1874 
E_dihed  =        64.5513 E_impro  =         0.0000 E_vdwl   =       -21.5288 
E_coul   =       -49.5292 E_long   =         0.0000 Press    =        -0.0007
------------ Step       16700000 ----- CPU =     2057.014 (sec) -------------
TotEng   =       158.5623 KinEng   =       129.9311 Temp     =       296.5251 
PotEng   =        28.6312 E_bond   =         6.9131 E_angle  =        29.2023 
E_dihed  =        64.1340 E_impro  =         0.0000 E_vdwl   =       -20.3570 
E_coul   =       -51.2612 E_long   =         0.0000 Press    =        -0.0080
------------ Step       16800000 ----- CPU =     2068.616 (sec) -------------
TotEng   =       175.4082 KinEng   =       145.5761 Temp     =       332.2298 
PotEng   =        29.8320 E_bond   =         6.1805 E_angle  =        29.3530 
E_dihed  =        64.1046 E_impro  =         0.0000 E_vdwl   =       -18.9403 
E_coul   =       -50.8658 E_long   =         0.0000 Press    =         0.0058
------------ Step       16900000 ----- CPU =     2080.323 (sec) -------------
TotEng   =       152.1208 KinEng   =       123.1724 Temp     =       281.1007 
PotEng   =        28.9484 E_bond   =         6.5977 E_angle  =        31.0108 
E_dihed  =        64.4269 E_impro  =         0.0000 E_vdwl   =       -23.1004 
E_coul   =       -49.9867 E_long   =         0.0000 Press    =        -0.0008
------------ Step       17000000 ----- CPU =     2091.954 (sec) -------------
TotEng   =       156.7884 KinEng   =       130.0325 Temp     =       296.7566 
PotEng   =        26.7559 E_bond   =         6.1095 E_angle  =        27.8676 
E_dihed  =        65.0820 E_impro  =         0.0000 E_vdwl   =       -21.9412 
E_coul   =       -50.3620 E_long   =         0.0000 Press    =        -0.0054
------------ Step       17100000 ----- CPU =     2103.469 (sec) -------------
TotEng   =       147.3404 KinEng   =       119.4570 Temp     =       272.6214 
PotEng   =        27.8834 E_bond   =         5.9324 E_angle  =        29.0852 
E_dihed  =        64.4920 E_impro  =         0.0000 E_vdwl   =       -21.8385 
E_coul   =       -49.7876 E_long   =         0.0000 Press    =        -0.0000
------------ Step       17200000 ----- CPU =     2115.138 (sec) -------------
TotEng   =       159.9248 KinEng   =       130.9186 Temp     =       298.7788 
PotEng   =        29.0061 E_bond   =         7.1824 E_angle  =        28.3004 
E_dihed  =        63.7337 E_impro  =         0.0000 E_vdwl   =       -19.8803 
E_coul   =       -50.3301 E_long   =         0.0000 Press    =         0.0013
------------ Step       17300000 ----- CPU =     2127.267 (sec) -------------
TotEng   =       138.7185 KinEng   =       109.8177 Temp     =       250.6228 
PotEng   =        28.9008 E_bond   =         6.3506 E_angle  =        30.3791 
E_dihed  =        64.2546 E_impro  =         0.0000 E_vdwl   =       -20.7696 
E_coul   =       -51.3138 E_long   =         0.0000 Press    =         0.0011
------------ Step       17400000 ----- CPU =     2139.446 (sec) -------------
TotEng   =       179.9157 KinEng   =       151.3708 Temp     =       345.4542 
PotEng   =        28.5449 E_bond   =         6.2056 E_angle  =        30.5064 
E_dihed  =        63.8695 E_impro  =         0.0000 E_vdwl   =       -20.6942 
E_coul   =       -51.3424 E_long   =         0.0000 Press    =         0.0108
------------ Step       17500000 ----- CPU =      2151.12 (sec) -------------
TotEng   =       153.5782 KinEng   =       125.9671 Temp     =       287.4785 
PotEng   =        27.6112 E_bond   =         5.5907 E_angle  =        29.0696 
E_dihed  =        65.8803 E_impro  =         0.0000 E_vdwl   =       -22.2529 
E_coul   =       -50.6765 E_long   =         0.0000 Press    =         0.0070
------------ Step       17600000 ----- CPU =     2163.332 (sec) -------------
TotEng   =       160.3487 KinEng   =       129.6329 Temp     =       295.8445 
PotEng   =        30.7159 E_bond   =         7.1009 E_angle  =        31.1519 
E_dihed  =        64.4910 E_impro  =         0.0000 E_vdwl   =       -21.2876 
E_coul   =       -50.7403 E_long   =         0.0000 Press    =        -0.0085
------------ Step       17700000 ----- CPU =     2175.101 (sec) -------------
TotEng   =       166.1283 KinEng   =       138.8173 Temp     =       316.8050 
PotEng   =        27.3110 E_bond   =         5.8995 E_angle  =        29.4953 
E_dihed  =        64.4630 E_impro  =         0.0000 E_vdwl   =       -20.9464 
E_coul   =       -51.6004 E_long   =         0.0000 Press    =         0.0087
------------ Step       17800000 ----- CPU =     2186.715 (sec) -------------
TotEng   =       167.1459 KinEng   =       136.8866 Temp     =       312.3988 
PotEng   =        30.2593 E_bond   =         6.8320 E_angle  =        29.6467 
E_dihed  =        66.0763 E_impro  =         0.0000 E_vdwl   =       -21.9802 
E_coul   =       -50.3156 E_long   =         0.0000 Press    =        -0.0046
------------ Step       17900000 ----- CPU =      2198.17 (sec) -------------
TotEng   =       151.9887 KinEng   =       124.7559 Temp     =       284.7144 
PotEng   =        27.2328 E_bond   =         6.9836 E_angle  =        28.4188 
E_dihed  =        64.6674 E_impro  =         0.0000 E_vdwl   =       -21.8080 
E_coul   =       -51.0290 E_long   =         0.0000 Press    =        -0.0022
------------ Step       18000000 ----- CPU =     2210.127 (sec) -------------
TotEng   =       157.8019 KinEng   =       128.3227 Temp     =       292.8545 
PotEng   =        29.4792 E_bond   =         5.7381 E_angle  =        27.8448 
E_dihed  =        66.3121 E_impro  =         0.0000 E_vdwl   =       -21.8515 
E_coul   =       -48.5643 E_long   =         0.0000 Press    =         0.0101
------------ Step       18100000 ----- CPU =     2222.358 (sec) -------------
TotEng   =       175.4069 KinEng   =       143.3999 Temp     =       327.2632 
PotEng   =        32.0071 E_bond   =         6.5994 E_angle  =        31.7173 
E_dihed  =        64.6407 E_impro  =         0.0000 E_vdwl   =       -19.8069 
E_coul   =       -51.1436 E_long   =         0.0000 Press    =         0.0080
------------ Step       18200000 ----- CPU =     2234.813 (sec) -------------
TotEng   =       160.1253 KinEng   =       130.6543 Temp     =       298.1756 
PotEng   =        29.4710 E_bond   =         7.0030 E_angle  =        31.1183 
E_dihed  =        63.3516 E_impro  =         0.0000 E_vdwl   =       -21.0886 
E_coul   =       -50.9133 E_long   =         0.0000 Press    =        -0.0037
------------ Step       18300000 ----- CPU =     2246.961 (sec) -------------
TotEng   =       170.8364 KinEng   =       140.5986 Temp     =       320.8702 
PotEng   =        30.2377 E_bond   =         6.3360 E_angle  =        31.3187 
E_dihed  =        65.1892 E_impro  =         0.0000 E_vdwl   =       -22.2282 
E_coul   =       -50.3781 E_long   =         0.0000 Press    =        -0.0008
------------ Step       18400000 ----- CPU =     2258.596 (sec) -------------
TotEng   =       155.8602 KinEng   =       125.2263 Temp     =       285.7880 
PotEng   =        30.6339 E_bond   =         6.8401 E_angle  =        29.5214 
E_dihed  =        65.3141 E_impro  =         0.0000 E_vdwl   =       -21.3864 
E_coul   =       -49.6554 E_long   =         0.0000 Press    =        -0.0117
------------ Step       18500000 ----- CPU =     2270.189 (sec) -------------
TotEng   =       172.9342 KinEng   =       144.3917 Temp     =       329.5267 
PotEng   =        28.5425 E_bond   =         5.6313 E_angle  =        28.0463 
E_dihed  =        64.3558 E_impro  =         0.0000 E_vdwl   =       -19.7505 
E_coul   =       -49.7404 E_long   =         0.0000 Press    =         0.0119
------------ Step       18600000 ----- CPU =     2281.689 (sec) -------------
TotEng   =       166.7206 KinEng   =       137.9871 Temp     =       314.9103 
PotEng   =        28.7336 E_bond   =         6.2756 E_angle  =        30.6540 
[...]
PotEng   =        28.9532 E_bond   =         6.1425 E_angle  =        31.4468 
E_dihed  =        63.6066 E_impro  =         0.0000 E_vdwl   =       -21.5174 
E_coul   =       -50.7253 E_long   =         0.0000 Press    =         0.0011
------------ Step       95400000 ----- CPU =     11214.71 (sec) -------------
TotEng   =       181.4280 KinEng   =       151.0587 Temp     =       344.7420 
PotEng   =        30.3692 E_bond   =         6.2809 E_angle  =        29.8355 
E_dihed  =        65.9243 E_impro  =         0.0000 E_vdwl   =       -21.3183 
E_coul   =       -50.3531 E_long   =         0.0000 Press    =         0.0064
------------ Step       95500000 ----- CPU =     11226.26 (sec) -------------
TotEng   =       154.9128 KinEng   =       126.7609 Temp     =       289.2902 
PotEng   =        28.1519 E_bond   =         6.8739 E_angle  =        29.0007 
E_dihed  =        64.9771 E_impro  =         0.0000 E_vdwl   =       -23.0412 
E_coul   =       -49.6587 E_long   =         0.0000 Press    =        -0.0058
------------ Step       95600000 ----- CPU =     11237.82 (sec) -------------
TotEng   =       164.2026 KinEng   =       135.5618 Temp     =       309.3754 
PotEng   =        28.6408 E_bond   =         6.7188 E_angle  =        29.5878 
E_dihed  =        64.7101 E_impro  =         0.0000 E_vdwl   =       -22.2180 
E_coul   =       -50.1579 E_long   =         0.0000 Press    =        -0.0047
------------ Step       95700000 ----- CPU =     11249.46 (sec) -------------
TotEng   =       167.4572 KinEng   =       137.8562 Temp     =       314.6115 
PotEng   =        29.6010 E_bond   =         5.9981 E_angle  =        29.2482 
E_dihed  =        65.7672 E_impro  =         0.0000 E_vdwl   =       -20.8493 
E_coul   =       -50.5632 E_long   =         0.0000 Press    =        -0.0046
------------ Step       95800000 ----- CPU =     11261.09 (sec) -------------
TotEng   =       162.5846 KinEng   =       132.9454 Temp     =       303.4042 
PotEng   =        29.6392 E_bond   =         5.8164 E_angle  =        28.5771 
E_dihed  =        66.1270 E_impro  =         0.0000 E_vdwl   =       -21.2908 
E_coul   =       -49.5904 E_long   =         0.0000 Press    =         0.0042
------------ Step       95900000 ----- CPU =     11272.66 (sec) -------------
TotEng   =       188.4175 KinEng   =       155.9088 Temp     =       355.8107 
PotEng   =        32.5087 E_bond   =         6.9967 E_angle  =        31.1401 
E_dihed  =        65.4828 E_impro  =         0.0000 E_vdwl   =       -21.0941 
E_coul   =       -50.0168 E_long   =         0.0000 Press    =        -0.0030
------------ Step       96000000 ----- CPU =     11284.45 (sec) -------------
TotEng   =       154.0387 KinEng   =       124.7533 Temp     =       284.7084 
PotEng   =        29.2855 E_bond   =         5.7924 E_angle  =        28.2799 
E_dihed  =        66.7896 E_impro  =         0.0000 E_vdwl   =       -20.8860 
E_coul   =       -50.6905 E_long   =         0.0000 Press    =        -0.0004
------------ Step       96100000 ----- CPU =     11296.22 (sec) -------------
TotEng   =       165.1875 KinEng   =       134.7004 Temp     =       307.4095 
PotEng   =        30.4870 E_bond   =         6.4541 E_angle  =        27.6885 
E_dihed  =        66.8386 E_impro  =         0.0000 E_vdwl   =       -21.3669 
E_coul   =       -49.1272 E_long   =         0.0000 Press    =         0.0052
------------ Step       96200000 ----- CPU =     11307.96 (sec) -------------
TotEng   =       159.2565 KinEng   =       129.3998 Temp     =       295.3126 
PotEng   =        29.8567 E_bond   =         6.2405 E_angle  =        29.9579 
E_dihed  =        64.6101 E_impro  =         0.0000 E_vdwl   =       -21.3389 
E_coul   =       -49.6128 E_long   =         0.0000 Press    =         0.0013
------------ Step       96300000 ----- CPU =     11319.55 (sec) -------------
TotEng   =       153.1660 KinEng   =       123.7089 Temp     =       282.3250 
PotEng   =        29.4571 E_bond   =         6.1746 E_angle  =        28.6677 
E_dihed  =        65.6650 E_impro  =         0.0000 E_vdwl   =       -20.8800 
E_coul   =       -50.1701 E_long   =         0.0000 Press    =         0.0045
------------ Step       96400000 ----- CPU =     11331.15 (sec) -------------
TotEng   =       169.2427 KinEng   =       138.3218 Temp     =       315.6742 
PotEng   =        30.9209 E_bond   =         6.7890 E_angle  =        29.8964 
E_dihed  =        65.5375 E_impro  =         0.0000 E_vdwl   =       -21.3437 
E_coul   =       -49.9583 E_long   =         0.0000 Press    =        -0.0032
------------ Step       96500000 ----- CPU =     11342.74 (sec) -------------
TotEng   =       166.4140 KinEng   =       137.4913 Temp     =       313.7788 
PotEng   =        28.9227 E_bond   =         6.6543 E_angle  =        29.1937 
E_dihed  =        65.4096 E_impro  =         0.0000 E_vdwl   =       -21.1834 
E_coul   =       -51.1515 E_long   =         0.0000 Press    =        -0.0049
------------ Step       96600000 ----- CPU =     11354.42 (sec) -------------
TotEng   =       157.1773 KinEng   =       129.4494 Temp     =       295.4258 
PotEng   =        27.7279 E_bond   =         5.4023 E_angle  =        28.1189 
E_dihed  =        66.0313 E_impro  =         0.0000 E_vdwl   =       -21.7535 
E_coul   =       -50.0711 E_long   =         0.0000 Press    =         0.0027
------------ Step       96700000 ----- CPU =     11366.03 (sec) -------------
TotEng   =       169.4440 KinEng   =       139.6955 Temp     =       318.8092 
PotEng   =        29.7485 E_bond   =         6.0976 E_angle  =        30.2790 
E_dihed  =        65.3768 E_impro  =         0.0000 E_vdwl   =       -19.2001 
E_coul   =       -52.8048 E_long   =         0.0000 Press    =         0.0105
------------ Step       96800000 ----- CPU =     11377.71 (sec) -------------
TotEng   =       149.0748 KinEng   =       122.4759 Temp     =       279.5110 
PotEng   =        26.5989 E_bond   =         5.1820 E_angle  =        28.6325 
E_dihed  =        64.2562 E_impro  =         0.0000 E_vdwl   =       -20.8048 
E_coul   =       -50.6669 E_long   =         0.0000 Press    =         0.0069
------------ Step       96900000 ----- CPU =     11389.39 (sec) -------------
TotEng   =       151.4987 KinEng   =       122.9592 Temp     =       280.6140 
PotEng   =        28.5395 E_bond   =         6.7089 E_angle  =        29.0915 
E_dihed  =        65.2459 E_impro  =         0.0000 E_vdwl   =       -21.6141 
E_coul   =       -50.8926 E_long   =         0.0000 Press    =        -0.0075
------------ Step       97000000 ----- CPU =     11401.07 (sec) -------------
TotEng   =       162.0459 KinEng   =       134.7793 Temp     =       307.5895 
PotEng   =        27.2666 E_bond   =         6.2955 E_angle  =        28.3675 
E_dihed  =        64.8510 E_impro  =         0.0000 E_vdwl   =       -20.7946 
E_coul   =       -51.4528 E_long   =         0.0000 Press    =         0.0086
------------ Step       97100000 ----- CPU =     11412.62 (sec) -------------
TotEng   =       158.2622 KinEng   =       126.8226 Temp     =       289.4310 
PotEng   =        31.4396 E_bond   =         6.0003 E_angle  =        30.0656 
E_dihed  =        65.8454 E_impro  =         0.0000 E_vdwl   =       -19.8313 
E_coul   =       -50.6404 E_long   =         0.0000 Press    =         0.0018
------------ Step       97200000 ----- CPU =     11424.19 (sec) -------------
TotEng   =       157.6493 KinEng   =       128.9194 Temp     =       294.2163 
PotEng   =        28.7298 E_bond   =         6.0015 E_angle  =        29.7188 
E_dihed  =        64.1050 E_impro  =         0.0000 E_vdwl   =       -21.9466 
E_coul   =       -49.1488 E_long   =         0.0000 Press    =         0.0057
------------ Step       97300000 ----- CPU =     11435.68 (sec) -------------
TotEng   =       166.1512 KinEng   =       137.6321 Temp     =       314.1002 
PotEng   =        28.5190 E_bond   =         5.9486 E_angle  =        30.5668 
E_dihed  =        63.9901 E_impro  =         0.0000 E_vdwl   =       -21.9940 
E_coul   =       -49.9924 E_long   =         0.0000 Press    =         0.0020
------------ Step       97400000 ----- CPU =     11447.34 (sec) -------------
TotEng   =       152.3071 KinEng   =       123.0084 Temp     =       280.7263 
PotEng   =        29.2987 E_bond   =         6.4009 E_angle  =        29.6849 
E_dihed  =        64.1558 E_impro  =         0.0000 E_vdwl   =       -20.3366 
E_coul   =       -50.6063 E_long   =         0.0000 Press    =        -0.0002
------------ Step       97500000 ----- CPU =     11459.11 (sec) -------------
TotEng   =       166.4150 KinEng   =       138.5458 Temp     =       316.1854 
PotEng   =        27.8692 E_bond   =         6.2007 E_angle  =        27.6724 
E_dihed  =        64.5479 E_impro  =         0.0000 E_vdwl   =       -20.2196 
E_coul   =       -50.3323 E_long   =         0.0000 Press    =         0.0005
------------ Step       97600000 ----- CPU =     11470.92 (sec) -------------
TotEng   =       153.5841 KinEng   =       124.5610 Temp     =       284.2697 
PotEng   =        29.0231 E_bond   =         6.0864 E_angle  =        29.2225 
E_dihed  =        63.7756 E_impro  =         0.0000 E_vdwl   =       -21.0032 
E_coul   =       -49.0582 E_long   =         0.0000 Press    =        -0.0013
------------ Step       97700000 ----- CPU =      11482.6 (sec) -------------
TotEng   =       161.8990 KinEng   =       132.9538 Temp     =       303.4234 
PotEng   =        28.9452 E_bond   =         6.2509 E_angle  =        28.0474 
E_dihed  =        65.9635 E_impro  =         0.0000 E_vdwl   =       -21.8368 
E_coul   =       -49.4798 E_long   =         0.0000 Press    =        -0.0065
------------ Step       97800000 ----- CPU =     11494.46 (sec) -------------
TotEng   =       146.1181 KinEng   =       118.5187 Temp     =       270.4801 
PotEng   =        27.5993 E_bond   =         5.1748 E_angle  =        27.7573 
E_dihed  =        65.3142 E_impro  =         0.0000 E_vdwl   =       -20.7016 
E_coul   =       -49.9454 E_long   =         0.0000 Press    =        -0.0002
------------ Step       97900000 ----- CPU =     11506.04 (sec) -------------
TotEng   =       153.2563 KinEng   =       121.8388 Temp     =       278.0572 
PotEng   =        31.4175 E_bond   =         6.6323 E_angle  =        30.4907 
E_dihed  =        65.0428 E_impro  =         0.0000 E_vdwl   =       -20.8155 
E_coul   =       -49.9329 E_long   =         0.0000 Press    =         0.0002
------------ Step       98000000 ----- CPU =     11518.24 (sec) -------------
TotEng   =       159.7155 KinEng   =       130.9086 Temp     =       298.7560 
PotEng   =        28.8068 E_bond   =         7.0650 E_angle  =        28.7525 
E_dihed  =        64.7159 E_impro  =         0.0000 E_vdwl   =       -21.7611 
E_coul   =       -49.9655 E_long   =         0.0000 Press    =        -0.0111
------------ Step       98100000 ----- CPU =     11530.19 (sec) -------------
TotEng   =       162.5590 KinEng   =       131.4928 Temp     =       300.0891 
PotEng   =        31.0662 E_bond   =         6.7047 E_angle  =        30.1917 
E_dihed  =        65.1205 E_impro  =         0.0000 E_vdwl   =       -20.7348 
E_coul   =       -50.2159 E_long   =         0.0000 Press    =        -0.0041
------------ Step       98200000 ----- CPU =     11541.94 (sec) -------------
TotEng   =       154.4046 KinEng   =       125.7342 Temp     =       286.9471 
PotEng   =        28.6704 E_bond   =         6.1898 E_angle  =        28.9437 
E_dihed  =        65.4302 E_impro  =         0.0000 E_vdwl   =       -20.4022 
E_coul   =       -51.4912 E_long   =         0.0000 Press    =         0.0007
------------ Step       98300000 ----- CPU =     11553.56 (sec) -------------
TotEng   =       162.4538 KinEng   =       134.3641 Temp     =       306.6421 
PotEng   =        28.0897 E_bond   =         5.7886 E_angle  =        29.7149 
E_dihed  =        65.0217 E_impro  =         0.0000 E_vdwl   =       -21.3227 
E_coul   =       -51.1127 E_long   =         0.0000 Press    =         0.0050
------------ Step       98400000 ----- CPU =     11565.36 (sec) -------------
TotEng   =       157.9749 KinEng   =       127.2495 Temp     =       290.4051 
PotEng   =        30.7255 E_bond   =         5.6877 E_angle  =        28.1012 
E_dihed  =        67.0692 E_impro  =         0.0000 E_vdwl   =       -20.0440 
E_coul   =       -50.0886 E_long   =         0.0000 Press    =         0.0006
------------ Step       98500000 ----- CPU =     11577.32 (sec) -------------
TotEng   =       159.9878 KinEng   =       133.5761 Temp     =       304.8436 
PotEng   =        26.4118 E_bond   =         7.2224 E_angle  =        28.7027 
E_dihed  =        63.4973 E_impro  =         0.0000 E_vdwl   =       -21.0707 
E_coul   =       -51.9400 E_long   =         0.0000 Press    =         0.0008
------------ Step       98600000 ----- CPU =     11589.14 (sec) -------------
TotEng   =       171.9961 KinEng   =       142.5817 Temp     =       325.3959 
PotEng   =        29.4144 E_bond   =         6.8435 E_angle  =        29.3207 
E_dihed  =        64.4444 E_impro  =         0.0000 E_vdwl   =       -20.4003 
E_coul   =       -50.7939 E_long   =         0.0000 Press    =         0.0016
------------ Step       98700000 ----- CPU =     11600.77 (sec) -------------
TotEng   =       182.2518 KinEng   =       153.2660 Temp     =       349.7793 
PotEng   =        28.9859 E_bond   =         6.9832 E_angle  =        29.6711 
E_dihed  =        64.9519 E_impro  =         0.0000 E_vdwl   =       -22.2647 
E_coul   =       -50.3556 E_long   =         0.0000 Press    =         0.0063
------------ Step       98800000 ----- CPU =     11612.28 (sec) -------------
TotEng   =       166.4243 KinEng   =       139.1101 Temp     =       317.4732 
PotEng   =        27.3142 E_bond   =         5.7589 E_angle  =        28.1781 
E_dihed  =        64.7307 E_impro  =         0.0000 E_vdwl   =       -21.8921 
E_coul   =       -49.4613 E_long   =         0.0000 Press    =         0.0056
------------ Step       98900000 ----- CPU =     11623.81 (sec) -------------
TotEng   =       154.7659 KinEng   =       128.2017 Temp     =       292.5782 
PotEng   =        26.5642 E_bond   =         6.9905 E_angle  =        28.4858 
E_dihed  =        64.0805 E_impro  =         0.0000 E_vdwl   =       -21.0089 
E_coul   =       -51.9837 E_long   =         0.0000 Press    =        -0.0069
------------ Step       99000000 ----- CPU =     11635.29 (sec) -------------
TotEng   =       151.4015 KinEng   =       121.8024 Temp     =       277.9739 
PotEng   =        29.5992 E_bond   =         6.3951 E_angle  =        30.9369 
E_dihed  =        64.1511 E_impro  =         0.0000 E_vdwl   =       -22.2693 
E_coul   =       -49.6146 E_long   =         0.0000 Press    =        -0.0035
------------ Step       99100000 ----- CPU =     11646.83 (sec) -------------
TotEng   =       160.2333 KinEng   =       132.7500 Temp     =       302.9584 
PotEng   =        27.4832 E_bond   =         6.3178 E_angle  =        28.0643 
E_dihed  =        64.9588 E_impro  =         0.0000 E_vdwl   =       -21.0190 
E_coul   =       -50.8387 E_long   =         0.0000 Press    =         0.0009
------------ Step       99200000 ----- CPU =      11658.4 (sec) -------------
TotEng   =       159.3551 KinEng   =       129.9991 Temp     =       296.6803 
PotEng   =        29.3560 E_bond   =         6.2113 E_angle  =        27.5453 
E_dihed  =        67.4919 E_impro  =         0.0000 E_vdwl   =       -22.1748 
E_coul   =       -49.7176 E_long   =         0.0000 Press    =        -0.0061
------------ Step       99300000 ----- CPU =     11669.89 (sec) -------------
TotEng   =       170.9533 KinEng   =       142.0572 Temp     =       324.1989 
PotEng   =        28.8961 E_bond   =         6.2314 E_angle  =        29.3846 
E_dihed  =        64.7392 E_impro  =         0.0000 E_vdwl   =       -21.4006 
E_coul   =       -50.0585 E_long   =         0.0000 Press    =        -0.0010
------------ Step       99400000 ----- CPU =     11681.37 (sec) -------------
TotEng   =       159.5518 KinEng   =       129.6375 Temp     =       295.8552 
PotEng   =        29.9143 E_bond   =         5.8168 E_angle  =        26.2314 
E_dihed  =        66.2818 E_impro  =         0.0000 E_vdwl   =       -20.5066 
E_coul   =       -47.9090 E_long   =         0.0000 Press    =         0.0018
------------ Step       99500000 ----- CPU =     11692.94 (sec) -------------
TotEng   =       154.4905 KinEng   =       125.3086 Temp     =       285.9757 
PotEng   =        29.1819 E_bond   =         6.7608 E_angle  =        30.1891 
E_dihed  =        64.0375 E_impro  =         0.0000 E_vdwl   =       -22.0239 
E_coul   =       -49.7816 E_long   =         0.0000 Press    =        -0.0061
------------ Step       99600000 ----- CPU =      11704.5 (sec) -------------
TotEng   =       148.8951 KinEng   =       121.8779 Temp     =       278.1463 
PotEng   =        27.0172 E_bond   =         6.1006 E_angle  =        29.2832 
E_dihed  =        64.4945 E_impro  =         0.0000 E_vdwl   =       -21.6209 
E_coul   =       -51.2401 E_long   =         0.0000 Press    =         0.0005
------------ Step       99700000 ----- CPU =      11716.1 (sec) -------------
TotEng   =       153.7145 KinEng   =       122.5604 Temp     =       279.7038 
PotEng   =        31.1541 E_bond   =         6.7955 E_angle  =        30.6260 
E_dihed  =        65.4893 E_impro  =         0.0000 E_vdwl   =       -21.7870 
E_coul   =       -49.9699 E_long   =         0.0000 Press    =        -0.0096
------------ Step       99800000 ----- CPU =     11727.94 (sec) -------------
TotEng   =       181.9175 KinEng   =       149.6640 Temp     =       341.5589 
PotEng   =        32.2535 E_bond   =         6.4944 E_angle  =        30.0610 
E_dihed  =        66.8686 E_impro  =         0.0000 E_vdwl   =       -19.9767 
E_coul   =       -51.1937 E_long   =         0.0000 Press    =         0.0121
------------ Step       99900000 ----- CPU =      11739.7 (sec) -------------
TotEng   =       145.7018 KinEng   =       116.4976 Temp     =       265.8675 
PotEng   =        29.2042 E_bond   =         6.8154 E_angle  =        30.1872 
E_dihed  =        64.6524 E_impro  =         0.0000 E_vdwl   =       -22.1584 
E_coul   =       -50.2923 E_long   =         0.0000 Press    =        -0.0130
------------ Step      100000000 ----- CPU =     11751.33 (sec) -------------
TotEng   =       165.3347 KinEng   =       134.8303 Temp     =       307.7060 
PotEng   =        30.5044 E_bond   =         6.9102 E_angle  =        30.1823 
E_dihed  =        64.5847 E_impro  =         0.0000 E_vdwl   =       -22.4461 
E_coul   =       -48.7267 E_long   =         0.0000 Press    =        -0.0058
Loop time of 11751.3 on 1 procs for 100000000 steps with 148 atoms

Performance: 735.236 ns/day, 0.033 hours/ns, 8509.678 timesteps/s
100.0% CPU use with 1 MPI tasks x no OpenMP threads

MPI task timing breakdown:
Section |  min time  |  avg time  |  max time  |%varavg| %total
---------------------------------------------------------------
Pair    | 6326.8     | 6326.8     | 6326.8     |   0.0 | 53.84
Bond    | 2064.9     | 2064.9     | 2064.9     |   0.0 | 17.57
Neigh   | 211.65     | 211.65     | 211.65     |   0.0 |  1.80
Comm    | 14.107     | 14.107     | 14.107     |   0.0 |  0.12
Output  | 0.053503   | 0.053503   | 0.053503   |   0.0 |  0.00
Modify  | 3099       | 3099       | 3099       |   0.0 | 26.37
Other   |            | 34.79      |            |       |  0.30

Nlocal:            148 ave         148 max         148 min
Histogram: 1 0 0 0 0 0 0 0 0 0
Nghost:              0 ave           0 max           0 min
Histogram: 1 0 0 0 0 0 0 0 0 0
Neighs:          10074 ave       10074 max       10074 min
Histogram: 1 0 0 0 0 0 0 0 0 0

Total # of neighbors = 10074
Ave neighs/atom = 68.067568
Ave special neighs/atom = 10.864865
Neighbor list builds = 1993169
Dangerous builds = 0

print "All done"
All done


Total wall time: 3:15:51
