ITEM: TIMESTEP
0
ITEM: NUMBER OF ATOMS
147
ITEM: BOX BOUNDS pp pp pp
-3.0000000000000000e+02 3.0000000000000000e+02
-3.0000000000000000e+02 3.0000000000000000e+02
-3.0000000000000000e+02 3.0000000000000000e+02
ITEM: ATOMS id type xs ys zs ix iy iz q
1 1 0.513865 0.51061 0.502673 0 0 0 0.0266202
2 1 0.515318 0.511087 0.50443 0 0 0 0.0252488
3 1 0.516958 0.512723 0.504178 0 0 0 0.0267189
4 1 0.51716 0.513897 0.502158 0 0 0 0.0280664
5 1 0.515685 0.513408 0.500403 0 0 0 0.0265064
6 1 0.514048 0.51177 0.500663 0 0 0 0.0248999
7 2 0.515803 0.51429 0.498832 0 0 0 0.0715334
8 2 0.512922 0.5114 0.499303 0 0 0 0.0764252
9 2 0.518065 0.513077 0.505558 0 0 0 0.0728356
10 2 0.512597 0.509342 0.502872 0 0 0 0.0736899
11 2 0.515172 0.51019 0.505988 0 0 0 0.0761852
12 3 0.518928 0.51567 0.501877 0 0 0 0.0137422
13 3 0.521313 0.51473 0.50209 0 0 0 0.00139411
14 4 0.518665 0.516972 0.503168 0 0 0 0.0705779
15 4 0.51876 0.516488 0.500222 0 0 0 0.0737533
16 5 0.521743 0.512965 0.500357 0 0 0 0.00674961
17 6 0.522287 0.510878 0.500997 0 0 0 -0.253924
18 7 0.521563 0.513407 0.498377 0 0 0 -0.255129
19 8 0.522913 0.516543 0.501843 0 0 0 -0.135307
20 9 0.521477 0.513943 0.503757 0 0 0 0.0642937
21 5 0.524318 0.51719 0.503513 0 0 0 0.00956252
22 7 0.524323 0.516198 0.505295 0 0 0 -0.253384
23 3 0.525875 0.519167 0.503255 0 0 0 0.00537538
24 3 0.52457 0.521308 0.502745 0 0 0 0.00954847
25 3 0.526358 0.522745 0.501718 0 0 0 0.0198782
26 4 0.5237 0.522042 0.504205 0 0 0 0.073647
27 4 0.523323 0.521003 0.501408 0 0 0 0.0719296
28 3 0.527558 0.521093 0.500197 0 0 0 0.0143505
29 4 0.527518 0.523225 0.503087 0 0 0 0.0706202
30 4 0.525773 0.524287 0.500875 0 0 0 0.0708692
31 8 0.527462 0.519012 0.501425 0 0 0 -0.129598
32 9 0.529277 0.521733 0.49995 0 0 0 0.0718673
33 9 0.526695 0.520858 0.498573 0 0 0 0.0705234
34 9 0.526862 0.519375 0.504815 0 0 0 0.0621604
35 10 0.522558 0.509712 0.499917 0 0 0 0.0601101
36 11 0.522942 0.517397 0.500352 0 0 0 0.0644629
37 5 0.528803 0.517203 0.501028 0 0 0 0.0130914
38 7 0.528623 0.515545 0.502203 0 0 0 -0.254221
39 3 0.530582 0.517175 0.499202 0 0 0 -0.00274869
40 3 0.530097 0.515295 0.497508 0 0 0 0.00888165
41 12 0.527942 0.515673 0.496298 0 0 0 0.0200416
42 4 0.530068 0.513658 0.498378 0 0 0 0.0720442
43 4 0.531417 0.515218 0.496218 0 0 0 0.072497
44 13 0.52613 0.51427 0.49626 0 0 0 0.0224695
45 14 0.524532 0.51519 0.494977 0 0 0 -0.117465
46 12 0.525405 0.517135 0.494263 0 0 0 0.0182578
47 15 0.527482 0.517467 0.49504 0 0 0 -0.117286
48 11 0.52851 0.518835 0.494723 0 0 0 0.0660215
49 16 0.52598 0.512682 0.497102 0 0 0 0.0708753
50 8 0.532773 0.51688 0.50022 0 0 0 -0.137614
51 9 0.530602 0.518777 0.498283 0 0 0 0.0636583
52 5 0.534722 0.517012 0.499042 0 0 0 0.00159702
53 11 0.532833 0.516638 0.501917 0 0 0 0.0609801
54 7 0.53467 0.517462 0.497053 0 0 0 -0.255492
55 3 0.537022 0.516722 0.500095 0 0 0 0.00409656
56 3 0.537073 0.515833 0.502543 0 0 0 0.0162652
57 3 0.53613 0.513417 0.50265 0 0 0 0.0284139
58 3 0.535888 0.512508 0.505022 0 0 0 0.0269136
59 4 0.537212 0.512275 0.501668 0 0 0 0.0761645
60 4 0.534448 0.513337 0.501895 0 0 0 0.0780216
61 4 0.53514 0.510817 0.504955 0 0 0 0.0764928
62 4 0.534777 0.513607 0.506015 0 0 0 0.0768421
63 4 0.537522 0.512353 0.50587 0 0 0 0.0728007
64 3 0.539485 0.515872 0.503445 0 0 0 0.0118214
65 4 0.536075 0.516967 0.503615 0 0 0 0.0718729
66 4 0.539558 0.515342 0.505212 0 0 0 0.063756
67 4 0.54018 0.517587 0.503405 0 0 0 0.0711324
68 4 0.540578 0.514768 0.502437 0 0 0 0.0687159
69 8 0.538132 0.518878 0.49996 0 0 0 -0.144612
70 9 0.537917 0.515453 0.499078 0 0 0 0.0575779
71 5 0.540018 0.51925 0.498743 0 0 0 -0.00151142
72 3 0.541047 0.521582 0.498688 0 0 0 -0.00695695
73 3 0.53934 0.52319 0.497583 0 0 0 0.00365736
74 1 0.539943 0.525623 0.49772 0 0 0 0.0220578
75 4 0.537677 0.523033 0.498382 0 0 0 0.067302
76 4 0.539143 0.522668 0.495813 0 0 0 0.0651459
77 1 0.540052 0.526695 0.499802 0 0 0 0.0157539
78 1 0.540602 0.528955 0.499933 0 0 0 0.0146161
79 1 0.541045 0.530172 0.497995 0 0 0 0.0163519
80 1 0.54093 0.529113 0.495913 0 0 0 0.0149994
81 1 0.540378 0.526855 0.495775 0 0 0 0.0152238
82 6 0.541577 0.53235 0.498152 0 0 0 -0.238627
83 10 0.541893 0.533252 0.496853 0 0 0 0.0697703
84 7 0.540892 0.517712 0.497727 0 0 0 -0.262616
85 11 0.537438 0.520178 0.500843 0 0 0 0.0557793
86 2 0.53971 0.525778 0.501318 0 0 0 0.0689255
87 2 0.541267 0.53004 0.494402 0 0 0 0.067078
88 2 0.540298 0.526067 0.494153 0 0 0 0.066963
89 2 0.540683 0.529762 0.501547 0 0 0 0.0670018
90 8 0.543167 0.521593 0.497463 0 0 0 -0.142386
91 9 0.541362 0.52202 0.500462 0 0 0 0.0576598
92 5 0.544725 0.523247 0.49764 0 0 0 -0.0023739
93 7 0.544395 0.52479 0.498928 0 0 0 -0.259742
102 4 0.544083 0.520988 0.493083 0 0 0 0.0707945
107 11 0.543498 0.520267 0.496462 0 0 0 0.0578621
146 22 0.524537 0.51829 0.493185 0 0 0 0.0691532
94 3 0.546933 0.52332 0.496347 0 0 0 0.00807722
95 3 0.547462 0.521473 0.49457 0 0 0 0.0136952
96 3 0.54785 0.519133 0.49556 0 0 0 0.0177601
97 4 0.549182 0.519193 0.496838 0 0 0 0.0679309
98 4 0.548407 0.517978 0.494225 0 0 0 0.0697737
99 4 0.546377 0.518375 0.496353 0 0 0 0.0691011
100 3 0.5458 0.521453 0.492615 0 0 0 0.0226524
101 4 0.549073 0.521927 0.493785 0 0 0 0.0756655
103 4 0.546368 0.520253 0.491323 0 0 0 0.0718355
104 4 0.545735 0.523132 0.491835 0 0 0 0.074023
105 8 0.548767 0.523502 0.497945 0 0 0 -0.136233
106 9 0.546838 0.52493 0.495427 0 0 0 0.0627259
108 5 0.55084 0.524262 0.497395 0 0 0 0.00849761
109 11 0.548457 0.523118 0.499593 0 0 0 0.0636571
110 3 0.552642 0.524478 0.499165 0 0 0 0.0089262
111 3 0.554693 0.523033 0.498552 0 0 0 0.0165127
112 7 0.551263 0.52483 0.495483 0 0 0 -0.25601
113 3 0.55412 0.520543 0.49837 0 0 0 0.0212336
114 4 0.555993 0.523215 0.499852 0 0 0 0.0780114
115 4 0.555408 0.523622 0.496945 0 0 0 0.0762711
116 3 0.55619 0.519155 0.497845 0 0 0 0.018052
117 4 0.552883 0.520285 0.49702 0 0 0 0.0735573
118 4 0.553395 0.519963 0.499975 0 0 0 0.0731004
119 17 0.555578 0.516827 0.4977 0 0 0 -0.118996
120 9 0.55744 0.519383 0.499195 0 0 0 0.0717353
121 9 0.556912 0.519712 0.49623 0 0 0 0.0731981
122 18 0.556945 0.515212 0.497288 0 0 0 0.0141255
123 19 0.559262 0.515593 0.496928 0 0 0 -0.129387
124 20 0.556117 0.512997 0.497198 0 0 0 -0.124249
125 11 0.55442 0.512842 0.497422 0 0 0 0.0638889
126 11 0.556962 0.511992 0.498303 0 0 0 0.0619562
127 8 0.553268 0.52682 0.49939 0 0 0 -0.129306
128 9 0.55196 0.5239 0.50079 0 0 0 0.0652432
129 5 0.554667 0.527597 0.501005 0 0 0 0.0183215
130 11 0.552593 0.527967 0.4983 0 0 0 0.0691934
131 3 0.555213 0.530067 0.501095 0 0 0 0.00939582
132 21 0.553127 0.53131 0.501375 0 0 0 -0.115402
133 3 0.556903 0.530622 0.502973 0 0 0 0.0146957
134 9 0.555978 0.530508 0.499463 0 0 0 0.0755302
135 5 0.557753 0.53299 0.502983 0 0 0 0.0183951
136 4 0.558392 0.529535 0.502777 0 0 0 0.0728175
137 4 0.556128 0.530257 0.504615 0 0 0 0.0720755
138 6 0.559217 0.53361 0.504577 0 0 0 -0.240949
139 7 0.557182 0.534335 0.501565 0 0 0 -0.239094
140 7 0.55546 0.526322 0.502385 0 0 0 -0.250804
141 11 0.553377 0.533025 0.501225 0 0 0 0.0808057
142 11 0.552427 0.53097 0.502935 0 0 0 0.0777831
143 10 0.559815 0.535105 0.504635 0 0 0 0.0699208
144 11 0.560305 0.514268 0.496608 0 0 0 0.0605597
145 11 0.55995 0.517165 0.496975 0 0 0 0.0575161
147 11 0.556638 0.512197 0.495772 0 0 0 0.0616646
ITEM: TIMESTEP
1000000
ITEM: NUMBER OF ATOMS
147
ITEM: BOX BOUNDS pp pp pp
-3.0000000000000000e+02 3.0000000000000000e+02
-3.0000000000000000e+02 3.0000000000000000e+02
-3.0000000000000000e+02 3.0000000000000000e+02
ITEM: ATOMS id type xs ys zs ix iy iz q
50 8 0.540428 0.521729 0.500851 0 0 0 -0.134152
52 5 0.539676 0.520344 0.502479 0 0 0 0.010724
54 7 0.540863 0.519349 0.5038 0 0 0 -0.254195
55 3 0.537167 0.519917 0.502122 0 0 0 0.0117894
56 3 0.535836 0.521931 0.503058 0 0 0 0.0283747
57 3 0.534471 0.522989 0.50113 0 0 0 0.0386093
60 4 0.533633 0.521643 0.500229 0 0 0 0.0808082
64 3 0.534393 0.521371 0.505127 0 0 0 0.024915
65 4 0.536995 0.523121 0.503694 0 0 0 0.0813134
66 4 0.535436 0.520596 0.506461 0 0 0 0.0739786
68 4 0.533563 0.522881 0.505856 0 0 0 0.07294
69 8 0.536582 0.517848 0.503312 0 0 0 -0.139583
70 9 0.536757 0.519777 0.500374 0 0 0 0.0638794
71 5 0.534842 0.5166 0.502469 0 0 0 -0.000498414
85 11 0.53777 0.517239 0.504317 0 0 0 0.0623622
53 11 0.539308 0.522482 0.499817 0 0 0 0.0608584
39 3 0.54257 0.522751 0.501093 0 0 0 -0.00236156
51 9 0.543483 0.521859 0.502392 0 0 0 0.0659351
67 4 0.533079 0.52016 0.504781 0 0 0 0.0709301
84 7 0.533423 0.517299 0.501209 0 0 0 -0.262992
74 1 0.538509 0.513724 0.500515 0 0 0 0.028243
86 2 0.537239 0.515933 0.49785 0 0 0 0.0753217
77 1 0.538673 0.515261 0.498724 0 0 0 0.0220983
78 1 0.540767 0.51628 0.498178 0 0 0 0.0229834
89 2 0.540822 0.517432 0.496772 0 0 0 0.0714315
58 3 0.535883 0.524146 0.499333 0 0 0 0.0371771
40 3 0.543659 0.522767 0.498943 0 0 0 0.00750728
42 4 0.544334 0.521151 0.498607 0 0 0 0.0693425
139 7 0.534948 0.520008 0.496091 0 0 0 -0.253337
135 5 0.533696 0.520196 0.494493 0 0 0 0.00265557
41 12 0.541971 0.523339 0.497199 0 0 0 0.0183013
63 4 0.537413 0.523373 0.498823 0 0 0 0.080531
61 4 0.536215 0.525783 0.499868 0 0 0 0.0782989
47 15 0.540546 0.521949 0.496127 0 0 0 -0.116055
46 12 0.539321 0.523345 0.494704 0 0 0 0.0118536
138 6 0.533588 0.522019 0.493138 0 0 0 -0.25064
37 5 0.542211 0.525087 0.502033 0 0 0 0.0091663
48 11 0.540842 0.52028 0.496219 0 0 0 0.066787
59 4 0.533261 0.524218 0.501737 0 0 0 0.0795962
62 4 0.534733 0.524048 0.497885 0 0 0 0.0846115
142 11 0.535467 0.515693 0.494199 0 0 0 0.0719654
134 9 0.532738 0.516581 0.497192 0 0 0 0.0658523
146 22 0.538205 0.522832 0.493427 0 0 0 0.0701018
132 21 0.534137 0.514684 0.494368 0 0 0 -0.12584
79 1 0.54267 0.515575 0.499243 0 0 0 0.022431
81 1 0.540431 0.513 0.501612 0 0 0 0.0211072
82 6 0.544745 0.51625 0.498602 0 0 0 -0.240398
80 1 0.542425 0.513937 0.500953 0 0 0 0.0215694
83 10 0.545961 0.51515 0.498721 0 0 0 0.0669271
73 3 0.536317 0.51284 0.501158 0 0 0 0.00898443
44 13 0.541572 0.525457 0.496479 0 0 0 0.0188586
45 14 0.539889 0.525427 0.495009 0 0 0 -0.120473
87 2 0.543941 0.513279 0.501676 0 0 0 0.0684626
88 2 0.540315 0.511879 0.503001 0 0 0 0.0697411
72 3 0.535131 0.514079 0.503035 0 0 0 -0.00265179
91 9 0.535964 0.513835 0.504595 0 0 0 0.0611473
75 4 0.535274 0.512806 0.499669 0 0 0 0.0672427
76 4 0.536566 0.511121 0.501682 0 0 0 0.0678307
141 11 0.534601 0.513427 0.495434 0 0 0 0.0683241
90 8 0.532922 0.513309 0.503276 0 0 0 -0.139553
93 7 0.533643 0.510288 0.50555 0 0 0 -0.258649
133 3 0.531941 0.518348 0.493997 0 0 0 -0.00258014
131 3 0.532431 0.516143 0.495427 0 0 0 -0.00366879
130 11 0.531293 0.513754 0.498686 0 0 0 0.0615841
107 11 0.531863 0.513982 0.502215 0 0 0 0.0628436
109 11 0.531172 0.511683 0.500205 0 0 0 0.0573888
103 4 0.531903 0.504961 0.50112 0 0 0 0.0710016
92 5 0.532477 0.511237 0.504255 0 0 0 0.0017077
100 3 0.531864 0.506808 0.501343 0 0 0 0.0241962
104 4 0.533592 0.50745 0.501345 0 0 0 0.0725713
102 4 0.530983 0.507493 0.499871 0 0 0 0.075254
95 3 0.530515 0.507568 0.503407 0 0 0 0.0139322
94 3 0.5304 0.510223 0.503399 0 0 0 0.00706977
101 4 0.531224 0.506968 0.504951 0 0 0 0.0784813
137 4 0.531851 0.518145 0.492116 0 0 0 0.0631801
129 5 0.530365 0.514812 0.495511 0 0 0 0.0113707
127 8 0.52998 0.513883 0.497625 0 0 0 -0.137386
117 4 0.528932 0.516675 0.50079 0 0 0 0.0770107
110 3 0.527714 0.513208 0.498312 0 0 0 0.00121014
113 3 0.527081 0.516764 0.500708 0 0 0 0.0220475
105 8 0.529935 0.511169 0.501232 0 0 0 -0.143045
108 5 0.527874 0.511792 0.500595 0 0 0 0.00135516
112 7 0.526179 0.511351 0.501717 0 0 0 -0.260898
118 4 0.526322 0.516161 0.502247 0 0 0 0.0737749
106 9 0.529231 0.510641 0.504657 0 0 0 0.0580879
96 3 0.52823 0.506288 0.503316 0 0 0 0.0230386
97 4 0.527262 0.5064 0.504815 0 0 0 0.0736457
99 4 0.527403 0.507102 0.5019 0 0 0 0.0736433
98 4 0.528446 0.504518 0.503044 0 0 0 0.0725936
126 11 0.530098 0.522624 0.495429 0 0 0 0.0685807
136 4 0.530318 0.518947 0.494635 0 0 0 0.0618044
119 17 0.52833 0.520258 0.499162 0 0 0 -0.119163
140 7 0.528894 0.514895 0.494075 0 0 0 -0.253723
120 9 0.526181 0.520038 0.501856 0 0 0 0.0705923
116 3 0.526485 0.519282 0.500273 0 0 0 0.0141958
115 4 0.526008 0.516087 0.497165 0 0 0 0.0731946
111 3 0.526247 0.515204 0.498737 0 0 0 0.0102332
114 4 0.524685 0.514602 0.499247 0 0 0 0.0710097
128 9 0.526869 0.51216 0.497092 0 0 0 0.0597348
143 10 0.532166 0.521997 0.492346 0 0 0 0.0633894
147 11 0.531544 0.522265 0.497794 0 0 0 0.0630333
124 20 0.530219 0.523181 0.497101 0 0 0 -0.12112
122 18 0.528271 0.522263 0.498533 0 0 0 0.0132359
123 19 0.526557 0.523761 0.498828 0 0 0 -0.120788
145 11 0.525494 0.52376 0.500138 0 0 0 0.0654506
121 9 0.52499 0.519489 0.499231 0 0 0 0.0695502
125 11 0.530465 0.524884 0.497202 0 0 0 0.0622143
144 11 0.526368 0.525059 0.497742 0 0 0 0.0620347
38 7 0.540558 0.526142 0.501583 0 0 0 -0.261104
49 16 0.542226 0.526992 0.497041 0 0 0 0.0685439
43 4 0.544968 0.524001 0.49913 0 0 0 0.0722551
32 9 0.544504 0.523803 0.505405 0 0 0 0.0720566
18 7 0.549969 0.524571 0.497749 0 0 0 -0.256375
17 6 0.547152 0.526161 0.495705 0 0 0 -0.255684
35 10 0.547044 0.524732 0.494989 0 0 0 0.059261
16 5 0.548813 0.526186 0.497305 0 0 0 0.00548043
36 11 0.546996 0.526137 0.5011 0 0 0 0.0650743
20 9 0.54779 0.529415 0.497686 0 0 0 0.0645914
7 2 0.549766 0.533107 0.496976 0 0 0 0.0715951
1 1 0.552549 0.531012 0.492575 0 0 0 0.0254399
10 2 0.552649 0.531213 0.490755 0 0 0 0.0735558
8 2 0.55053 0.533862 0.493212 0 0 0 0.0742731
6 1 0.551377 0.532448 0.49393 0 0 0 0.0217067
31 8 0.544159 0.526131 0.502841 0 0 0 -0.132143
28 3 0.545566 0.524973 0.50454 0 0 0 0.0141169
33 9 0.546886 0.523994 0.503824 0 0 0 0.0690287
19 8 0.547386 0.527692 0.50068 0 0 0 -0.140181
13 3 0.548734 0.528247 0.498703 0 0 0 -0.000859283
4 1 0.551836 0.530134 0.497073 0 0 0 0.0283358
5 1 0.550977 0.53202 0.496156 0 0 0 0.0258606
2 1 0.55343 0.529109 0.493493 0 0 0 0.0259685
3 1 0.553218 0.5287 0.495819 0 0 0 0.0304122
9 2 0.553966 0.527141 0.496428 0 0 0 0.0744768
11 2 0.554333 0.527935 0.492472 0 0 0 0.0763377
23 3 0.544491 0.528601 0.503176 0 0 0 0.00887565
24 3 0.545268 0.52898 0.505548 0 0 0 0.0119371
21 5 0.54625 0.529385 0.501618 0 0 0 0.00513802
22 7 0.546566 0.531392 0.501225 0 0 0 -0.258079
15 4 0.552271 0.528259 0.500048 0 0 0 0.0729499
12 3 0.550947 0.529376 0.49933 0 0 0 0.0135033
14 4 0.550702 0.530808 0.500532 0 0 0 0.0738161
29 4 0.546458 0.526344 0.507692 0 0 0 0.0712791
25 3 0.546649 0.526766 0.506039 0 0 0 0.0180559
30 4 0.54835 0.527064 0.505685 0 0 0 0.0716118
34 9 0.542853 0.529518 0.502872 0 0 0 0.0654673
26 4 0.543827 0.529088 0.506656 0 0 0 0.0741939
27 4 0.546329 0.530502 0.505784 0 0 0 0.0738651
ITEM: TIMESTEP
2000000
ITEM: NUMBER OF ATOMS
147
ITEM: BOX BOUNDS pp pp pp
-3.0000000000000000e+02 3.0000000000000000e+02
-3.0000000000000000e+02 3.0000000000000000e+02
-3.0000000000000000e+02 3.0000000000000000e+02
ITEM: ATOMS id type xs ys zs ix iy iz q
50 8 0.540993 0.523531 0.498177 0 0 0 -0.134334
52 5 0.539231 0.522312 0.49737 0 0 0 0.00754878
54 7 0.538998 0.521928 0.495385 0 0 0 -0.256934
55 3 0.538104 0.520875 0.499073 0 0 0 0.00876374
56 3 0.539683 0.519055 0.500015 0 0 0 0.0262224
57 3 0.53978 0.519346 0.502558 0 0 0 0.0391098
60 4 0.538116 0.519332 0.503384 0 0 0 0.0822014
65 4 0.54129 0.519272 0.499277 0 0 0 0.0808104
69 8 0.536165 0.519931 0.497986 0 0 0 -0.138781
70 9 0.537514 0.522044 0.500367 0 0 0 0.0620936
71 5 0.534248 0.519464 0.499189 0 0 0 0.00919757
85 11 0.535998 0.520343 0.49635 0 0 0 0.0624681
53 11 0.541077 0.523747 0.499856 0 0 0 0.0629268
84 7 0.534183 0.519091 0.50118 0 0 0 -0.256144
58 3 0.540944 0.521514 0.503297 0 0 0 0.0331733
63 4 0.539842 0.522988 0.503073 0 0 0 0.0812165
61 4 0.54251 0.521876 0.502386 0 0 0 0.0830357
62 4 0.541362 0.52139 0.505038 0 0 0 0.0819675
59 4 0.540695 0.517858 0.503203 0 0 0 0.0832436
64 3 0.538975 0.516683 0.499439 0 0 0 0.0258559
66 4 0.537435 0.516217 0.500287 0 0 0 0.0745204
67 4 0.540274 0.515497 0.499925 0 0 0 0.0761012
68 4 0.538766 0.516525 0.497647 0 0 0 0.0745129
72 3 0.532118 0.519991 0.497891 0 0 0 0.00495657
91 9 0.532453 0.519811 0.496107 0 0 0 0.0658219
139 7 0.535339 0.523428 0.504117 0 0 0 -0.252006
135 5 0.535404 0.522587 0.505957 0 0 0 0.00313454
51 9 0.543376 0.522307 0.495976 0 0 0 0.0664102
39 3 0.543065 0.523834 0.496897 0 0 0 -0.00188613
74 1 0.53301 0.524048 0.497829 0 0 0 0.0340399
136 4 0.53393 0.519492 0.507259 0 0 0 0.0639852
138 6 0.537361 0.522566 0.507114 0 0 0 -0.248643
143 10 0.53717 0.521939 0.508609 0 0 0 0.0628255
88 2 0.533209 0.522983 0.494347 0 0 0 0.0770882
81 1 0.533762 0.524158 0.495646 0 0 0 0.0250475
80 1 0.535372 0.525704 0.495094 0 0 0 0.0231246
133 3 0.533526 0.521305 0.507123 0 0 0 0.00375662
77 1 0.533781 0.525536 0.499452 0 0 0 0.0275364
86 2 0.533104 0.525441 0.501126 0 0 0 0.0756065
87 2 0.536008 0.525707 0.493368 0 0 0 0.0707442
147 11 0.535653 0.515474 0.497931 0 0 0 0.063329
126 11 0.535245 0.51364 0.495748 0 0 0 0.0653359
125 11 0.533198 0.515893 0.495925 0 0 0 0.0679052
124 20 0.534345 0.514847 0.496777 0 0 0 -0.119953
134 9 0.531871 0.52121 0.504009 0 0 0 0.0708123
137 4 0.533184 0.521803 0.508806 0 0 0 0.0646982
43 4 0.541575 0.525266 0.49386 0 0 0 0.0716293
20 9 0.544545 0.516895 0.498113 0 0 0 0.0571473
16 5 0.545241 0.517261 0.501599 0 0 0 -0.00712816
13 3 0.546003 0.517203 0.499163 0 0 0 -0.00794145
18 7 0.544503 0.515682 0.502584 0 0 0 -0.262158
14 4 0.547094 0.513743 0.499479 0 0 0 0.0723827
119 17 0.533161 0.513771 0.500336 0 0 0 -0.112606
122 18 0.532715 0.513626 0.498249 0 0 0 0.0160369
145 11 0.530871 0.512683 0.495465 0 0 0 0.0603525
131 3 0.531374 0.521325 0.50577 0 0 0 0.0003548
123 19 0.530895 0.512694 0.497158 0 0 0 -0.126594
118 4 0.532271 0.515734 0.504012 0 0 0 0.0803353
116 3 0.531484 0.512863 0.501886 0 0 0 0.0147076
113 3 0.531628 0.514023 0.504159 0 0 0 0.0210412
121 9 0.531726 0.511035 0.502145 0 0 0 0.0725347
144 11 0.530205 0.511372 0.497906 0 0 0 0.060945
117 4 0.5329 0.513143 0.50517 0 0 0 0.0748041
90 8 0.53049 0.518373 0.498503 0 0 0 -0.135071
107 11 0.5306 0.517786 0.500079 0 0 0 0.0659053
120 9 0.529792 0.513082 0.501187 0 0 0 0.072562
130 11 0.5294 0.518833 0.502976 0 0 0 0.0611735
106 9 0.526799 0.515096 0.498134 0 0 0 0.0596251
111 3 0.529342 0.514115 0.505421 0 0 0 0.0135944
115 4 0.529672 0.514349 0.507184 0 0 0 0.0730831
114 4 0.52848 0.512531 0.505214 0 0 0 0.0734041
73 3 0.531276 0.522378 0.498455 0 0 0 0.0162772
75 4 0.530826 0.522427 0.500232 0 0 0 0.0734594
93 7 0.52834 0.518898 0.495436 0 0 0 -0.262305
92 5 0.52858 0.518036 0.497248 0 0 0 -0.00102064
129 5 0.529932 0.519292 0.506297 0 0 0 0.0142999
127 8 0.529027 0.518218 0.504495 0 0 0 -0.135596
94 3 0.526694 0.516902 0.498498 0 0 0 0.00780835
105 8 0.527142 0.517285 0.500896 0 0 0 -0.143895
110 3 0.527826 0.516095 0.50468 0 0 0 0.000808452
108 5 0.526675 0.515688 0.502484 0 0 0 0.00104534
112 7 0.525868 0.513877 0.502063 0 0 0 -0.260388
76 4 0.529675 0.522776 0.497571 0 0 0 0.0677351
109 11 0.52799 0.51864 0.501431 0 0 0 0.0579915
95 3 0.524383 0.517812 0.497752 0 0 0 0.0128817
101 4 0.524229 0.51784 0.49591 0 0 0 0.077007
140 7 0.529749 0.518596 0.508188 0 0 0 -0.255777
128 9 0.526548 0.516322 0.505984 0 0 0 0.0609814
96 3 0.522496 0.516304 0.498597 0 0 0 0.0235195
99 4 0.52091 0.516798 0.497782 0 0 0 0.072167
98 4 0.52285 0.514511 0.498227 0 0 0 0.0741531
97 4 0.522342 0.516447 0.500424 0 0 0 0.073184
102 4 0.525254 0.521365 0.497975 0 0 0 0.0735354
100 3 0.524004 0.520218 0.498646 0 0 0 0.0260394
103 4 0.52402 0.52029 0.500473 0 0 0 0.0727063
104 4 0.522407 0.520879 0.49803 0 0 0 0.0702279
141 11 0.53141 0.524734 0.505738 0 0 0 0.0743697
132 21 0.53022 0.523475 0.505941 0 0 0 -0.122102
142 11 0.529677 0.523633 0.507557 0 0 0 0.0710125
79 1 0.536202 0.527157 0.496668 0 0 0 0.025453
78 1 0.535341 0.527103 0.498823 0 0 0 0.026171
89 2 0.535934 0.528322 0.500004 0 0 0 0.0741728
40 3 0.542763 0.525766 0.495159 0 0 0 0.00963779
83 10 0.537788 0.529063 0.494574 0 0 0 0.0651058
82 6 0.537705 0.528769 0.496155 0 0 0 -0.238853
42 4 0.541949 0.527164 0.495934 0 0 0 0.0730959
48 11 0.545 0.525012 0.490776 0 0 0 0.0657088
17 6 0.546062 0.519085 0.502681 0 0 0 -0.265104
35 10 0.545731 0.518878 0.50425 0 0 0 0.0539925
15 4 0.547792 0.514977 0.496989 0 0 0 0.0730349
12 3 0.54765 0.515266 0.498764 0 0 0 0.00922757
19 8 0.54694 0.519418 0.498548 0 0 0 -0.142325
22 7 0.547515 0.518642 0.49483 0 0 0 -0.255327
7 2 0.549149 0.515213 0.50309 0 0 0 0.0757041
36 11 0.546846 0.520683 0.499657 0 0 0 0.0636769
21 5 0.547399 0.519994 0.496341 0 0 0 0.00519031
5 1 0.550422 0.515825 0.501951 0 0 0 0.0261877
4 1 0.549953 0.515824 0.499678 0 0 0 0.0249058
8 2 0.552856 0.516571 0.504468 0 0 0 0.0676492
9 2 0.551242 0.51662 0.496432 0 0 0 0.0675312
3 1 0.551561 0.516582 0.498181 0 0 0 0.0202717
2 1 0.553688 0.517203 0.498929 0 0 0 0.0144339
1 1 0.554145 0.517249 0.501186 0 0 0 0.0147421
6 1 0.552511 0.516567 0.502697 0 0 0 0.0164119
37 5 0.544939 0.524231 0.498599 0 0 0 0.0107384
34 9 0.546856 0.523074 0.494491 0 0 0 0.0622966
31 8 0.54711 0.523817 0.49789 0 0 0 -0.1309
23 3 0.547798 0.522507 0.495957 0 0 0 0.00613235
27 4 0.551173 0.521554 0.495001 0 0 0 0.0705829
11 2 0.554957 0.51779 0.497779 0 0 0 0.0688652
10 2 0.555789 0.517827 0.501807 0 0 0 0.0702832
38 7 0.544601 0.525306 0.50028 0 0 0 -0.258115
33 9 0.549028 0.523974 0.500887 0 0 0 0.0741175
24 3 0.550269 0.523005 0.495628 0 0 0 0.00742671
26 4 0.550372 0.524383 0.494451 0 0 0 0.0698391
25 3 0.551114 0.523743 0.497903 0 0 0 0.0210734
30 4 0.551854 0.522316 0.498763 0 0 0 0.0706252
28 3 0.54907 0.524565 0.499154 0 0 0 0.0167037
29 4 0.552343 0.525126 0.497788 0 0 0 0.0716283
41 12 0.544836 0.526541 0.494027 0 0 0 0.0158875
47 15 0.545635 0.526073 0.491914 0 0 0 -0.119752
32 9 0.549139 0.52638 0.499066 0 0 0 0.0718418
44 13 0.546121 0.528249 0.494835 0 0 0 0.0180191
49 16 0.546028 0.52913 0.496409 0 0 0 0.0670906
46 12 0.547459 0.527328 0.491658 0 0 0 0.0097465
146 22 0.5485 0.527263 0.49015 0 0 0 0.0663196
45 14 0.547762 0.528763 0.493332 0 0 0 -0.12384
ITEM: TIMESTEP
3000000
ITEM: NUMBER OF ATOMS
147
ITEM: BOX BOUNDS pp pp pp
-3.0000000000000000e+02 3.0000000000000000e+02
-3.0000000000000000e+02 3.0000000000000000e+02
-3.0000000000000000e+02 3.0000000000000000e+02
ITEM: ATOMS id type xs ys zs ix iy iz q
50 8 0.542916 0.520482 0.498632 0 0 0 -0.132392
52 5 0.541058 0.521282 0.497576 0 0 0 0.00871954
54 7 0.541098 0.521905 0.495632 0 0 0 -0.253648
55 3 0.538924 0.520983 0.498894 0 0 0 0.0105613
56 3 0.538518 0.518441 0.499173 0 0 0 0.0274784
57 3 0.538309 0.517929 0.501706 0 0 0 0.0385423
60 4 0.536972 0.51894 0.502478 0 0 0 0.0815406
65 4 0.539921 0.517463 0.498579 0 0 0 0.0833902
69 8 0.537166 0.52217 0.497746 0 0 0 -0.138105
70 9 0.539133 0.521769 0.500518 0 0 0 0.0629313
71 5 0.535259 0.522769 0.498899 0 0 0 0.00862675
85 11 0.537591 0.523016 0.496352 0 0 0 0.0622331
53 11 0.542654 0.519989 0.500225 0 0 0 0.0640536
84 7 0.534773 0.521954 0.500657 0 0 0 -0.256829
58 3 0.540462 0.51818 0.50306 0 0 0 0.0352625
63 4 0.541029 0.519927 0.503125 0 0 0 0.0821132
61 4 0.541798 0.517143 0.502401 0 0 0 0.0815743
62 4 0.540196 0.517627 0.504794 0 0 0 0.0827065
59 4 0.537746 0.516225 0.501887 0 0 0 0.082243
64 3 0.536468 0.517624 0.497876 0 0 0 0.026156
66 4 0.534905 0.518253 0.498577 0 0 0 0.0744569
67 4 0.536359 0.515786 0.497825 0 0 0 0.0764844
68 4 0.536654 0.518169 0.496151 0 0 0 0.0764691
72 3 0.534104 0.524879 0.498118 0 0 0 0.00595653
91 9 0.534275 0.524919 0.496312 0 0 0 0.0669481
139 7 0.538286 0.522862 0.504448 0 0 0 -0.252413
135 5 0.537751 0.522343 0.506345 0 0 0 0.00309591
51 9 0.544337 0.518882 0.495872 0 0 0 0.0671021
39 3 0.544884 0.519734 0.497448 0 0 0 -0.00214756
74 1 0.53761 0.527199 0.498793 0 0 0 0.0344066
136 4 0.534446 0.52144 0.507698 0 0 0 0.0645663
138 6 0.539055 0.520926 0.5075 0 0 0 -0.250237
143 10 0.538422 0.520608 0.508965 0 0 0 0.0636938
88 2 0.537342 0.52723 0.495197 0 0 0 0.0782452
81 1 0.538461 0.527342 0.496621 0 0 0 0.0278528
133 3 0.535466 0.52297 0.507408 0 0 0 0.00278877
77 1 0.539072 0.527193 0.500605 0 0 0 0.0261553
73 3 0.535115 0.527021 0.499148 0 0 0 0.0173081
20 9 0.540685 0.514029 0.49541 0 0 0 0.058418
147 11 0.532225 0.518754 0.499157 0 0 0 0.064258
124 20 0.530947 0.519953 0.498475 0 0 0 -0.118594
80 1 0.540768 0.527307 0.496287 0 0 0 0.0257498
87 2 0.541374 0.527179 0.494611 0 0 0 0.0710667
125 11 0.531721 0.521645 0.498846 0 0 0 0.0700999
126 11 0.530142 0.519481 0.496933 0 0 0 0.0663838
137 4 0.535768 0.523746 0.509045 0 0 0 0.064447
38 7 0.546172 0.518407 0.500982 0 0 0 -0.260205
37 5 0.546086 0.518117 0.498966 0 0 0 0.0102711
34 9 0.54743 0.517394 0.494577 0 0 0 0.0626122
36 11 0.544508 0.514241 0.498272 0 0 0 0.0640324
19 8 0.543914 0.513948 0.496715 0 0 0 -0.141319
21 5 0.545141 0.514724 0.494872 0 0 0 0.00569715
22 7 0.54453 0.514433 0.492957 0 0 0 -0.256844
23 3 0.547311 0.515872 0.495535 0 0 0 0.00686838
16 5 0.540605 0.512803 0.498712 0 0 0 -0.00467973
13 3 0.541699 0.512913 0.496429 0 0 0 -0.0055238
17 6 0.542116 0.512598 0.500374 0 0 0 -0.264674
35 10 0.541249 0.51246 0.501739 0 0 0 0.0532366
12 3 0.541791 0.510571 0.495355 0 0 0 0.0104592
15 4 0.542634 0.510625 0.493738 0 0 0 0.0693358
9 2 0.546169 0.509673 0.495611 0 0 0 0.066423
18 7 0.538654 0.512345 0.499013 0 0 0 -0.263905
14 4 0.540051 0.510091 0.495023 0 0 0 0.0742728
4 1 0.542874 0.508861 0.496823 0 0 0 0.0278142
5 1 0.541559 0.507534 0.498247 0 0 0 0.0269588
3 1 0.54521 0.508659 0.496776 0 0 0 0.0191501
1 1 0.544896 0.505688 0.499517 0 0 0 0.014483
2 1 0.546158 0.506971 0.497973 0 0 0 0.0133695
11 2 0.547929 0.506639 0.497702 0 0 0 0.0663914
7 2 0.539765 0.507721 0.498284 0 0 0 0.0747624
6 1 0.542564 0.505978 0.499621 0 0 0 0.0164849
8 2 0.541623 0.505014 0.500824 0 0 0 0.0682661
10 2 0.545696 0.504474 0.500605 0 0 0 0.0687852
122 18 0.528988 0.519832 0.500017 0 0 0 0.014778
119 17 0.529415 0.51962 0.502146 0 0 0 -0.115918
145 11 0.526996 0.519778 0.497337 0 0 0 0.0597029
123 19 0.526953 0.519441 0.498952 0 0 0 -0.124447
121 9 0.527421 0.517183 0.503635 0 0 0 0.0723833
134 9 0.534268 0.523889 0.504162 0 0 0 0.0708957
90 8 0.531745 0.524722 0.498708 0 0 0 -0.1358
107 11 0.53135 0.52385 0.500095 0 0 0 0.0658683
118 4 0.529929 0.520184 0.506195 0 0 0 0.0762974
117 4 0.527446 0.518664 0.507149 0 0 0 0.0732485
113 3 0.528111 0.519903 0.505942 0 0 0 0.0179486
116 3 0.527564 0.518969 0.503616 0 0 0 0.0174524
144 11 0.525528 0.519787 0.499814 0 0 0 0.0623317
120 9 0.525987 0.519538 0.502982 0 0 0 0.0709837
131 3 0.534166 0.524535 0.505855 0 0 0 -0.000580834
92 5 0.530076 0.526062 0.497792 0 0 0 0.00245968
130 11 0.530851 0.524112 0.503226 0 0 0 0.064623
106 9 0.52685 0.524726 0.498139 0 0 0 0.0582938
111 3 0.526975 0.522135 0.506404 0 0 0 0.007287
75 4 0.534718 0.527051 0.500929 0 0 0 0.0727499
93 7 0.53051 0.527426 0.496343 0 0 0 -0.261359
94 3 0.527855 0.525999 0.499022 0 0 0 0.00475055
129 5 0.53178 0.524566 0.506536 0 0 0 0.013278
109 11 0.529827 0.525778 0.501944 0 0 0 0.0604891
127 8 0.530264 0.524298 0.504806 0 0 0 -0.136473
140 7 0.53121 0.52485 0.508472 0 0 0 -0.257842
105 8 0.528355 0.52529 0.50126 0 0 0 -0.143583
128 9 0.527253 0.525662 0.505884 0 0 0 0.0595789
110 3 0.527855 0.524145 0.505014 0 0 0 -0.00143791
108 5 0.526945 0.524255 0.502673 0 0 0 8.89933e-05
96 3 0.524193 0.528049 0.499426 0 0 0 0.023709
98 4 0.523568 0.526463 0.498712 0 0 0 0.073461
115 4 0.527198 0.522495 0.508151 0 0 0 0.0725037
112 7 0.525108 0.523582 0.502135 0 0 0 -0.262058
114 4 0.525169 0.521918 0.506271 0 0 0 0.0723861
76 4 0.534244 0.528485 0.498355 0 0 0 0.0686445
132 21 0.535145 0.526765 0.505839 0 0 0 -0.124007
101 4 0.526746 0.528914 0.497127 0 0 0 0.0763829
95 3 0.526695 0.528335 0.49887 0 0 0 0.0123027
102 4 0.529708 0.529994 0.500038 0 0 0 0.07339
100 3 0.527889 0.530082 0.500348 0 0 0 0.0237771
103 4 0.527594 0.529649 0.502089 0 0 0 0.0705834
97 4 0.523948 0.528002 0.501254 0 0 0 0.0735382
99 4 0.523096 0.529392 0.498718 0 0 0 0.0720407
86 2 0.538389 0.527049 0.50229 0 0 0 0.074534
141 11 0.536795 0.526741 0.505454 0 0 0 0.0732333
142 11 0.535033 0.527481 0.507402 0 0 0 0.0709323
104 4 0.527361 0.531809 0.500046 0 0 0 0.0702222
78 1 0.54137 0.52725 0.500239 0 0 0 0.0255384
89 2 0.54245 0.527113 0.501669 0 0 0 0.0739764
79 1 0.542261 0.527312 0.498092 0 0 0 0.0265038
43 4 0.545359 0.523074 0.496163 0 0 0 0.072129
31 8 0.547193 0.516397 0.497945 0 0 0 -0.131101
33 9 0.548017 0.514142 0.500529 0 0 0 0.0740347
24 3 0.549347 0.514387 0.495195 0 0 0 0.00795077
25 3 0.549842 0.513364 0.497498 0 0 0 0.0230328
27 4 0.549019 0.513146 0.493894 0 0 0 0.0708789
30 4 0.549068 0.511721 0.497686 0 0 0 0.0700744
40 3 0.546313 0.521777 0.496938 0 0 0 0.00688616
48 11 0.546731 0.522038 0.49216 0 0 0 0.0668659
47 15 0.548012 0.521422 0.493032 0 0 0 -0.118136
28 3 0.548857 0.515028 0.499179 0 0 0 0.0170289
26 4 0.550697 0.515481 0.494637 0 0 0 0.0698471
29 4 0.551616 0.513186 0.497836 0 0 0 0.0711795
32 9 0.55022 0.516077 0.499881 0 0 0 0.0732789
42 4 0.54695 0.522395 0.498543 0 0 0 0.0706566
41 12 0.548141 0.521258 0.495302 0 0 0 0.0174325
44 13 0.550296 0.520681 0.495801 0 0 0 0.0193475
49 16 0.551053 0.520364 0.497421 0 0 0 0.066788
46 12 0.550116 0.52086 0.492233 0 0 0 0.010722
146 22 0.550476 0.520666 0.490513 0 0 0 0.0663441
45 14 0.551466 0.520321 0.493871 0 0 0 -0.123197
82 6 0.544495 0.527335 0.497738 0 0 0 -0.239341
83 10 0.544862 0.52769 0.496192 0 0 0 0.0654092
ITEM: TIMESTEP
4000000
ITEM: NUMBER OF ATOMS
147
ITEM: BOX BOUNDS pp pp pp
-3.0000000000000000e+02 3.0000000000000000e+02
-3.0000000000000000e+02 3.0000000000000000e+02
-3.0000000000000000e+02 3.0000000000000000e+02
ITEM: ATOMS id type xs ys zs ix iy iz q
50 8 0.533452 0.51944 0.499684 0 0 0 -0.131938
52 5 0.535088 0.519525 0.498087 0 0 0 0.0096049
54 7 0.534739 0.520096 0.496175 0 0 0 -0.255679
55 3 0.537391 0.519539 0.49907 0 0 0 0.00959899
56 3 0.537776 0.521705 0.500453 0 0 0 0.0268906
57 3 0.538606 0.521049 0.502838 0 0 0 0.0383224
60 4 0.540038 0.519951 0.50272 0 0 0 0.0828615
65 4 0.536207 0.522571 0.500695 0 0 0 0.0812198