
147	atoms
150	bonds
266	angles
392	dihedrals

22	atom types
30	bond types
57	angle types
44	dihedral types

-300.0 300.0 xlo xhi
-300.0 300.0 ylo yhi
-300.0 300.0 zlo zhi

Masses

1	12.01	#ca
2	1.008	#ha
3	12.01	#c3
4	1.008	#hc
5	12.01	#c
6	16.0	#oh
7	16.0	#o
8	14.01	#n
9	1.008	#h1
10	1.008	#ho
11	1.008	#hn
12	12.01	#cc
13	12.01	#cd
14	14.01	#nd
15	14.01	#na
16	1.008	#h4
17	14.01	#n2
18	12.01	#c2
19	14.01	#nh
20	14.01	#n4
21	14.01	#n3
22	1.008	#h5

Pair Coeffs

1	0.0988	3.31521230994	#ca
2	0.0161	2.62547852236	#ha
3	0.1078	3.39770953124	#c3
4	0.0208	2.60017699876	#hc
5	0.0988	3.31521230994	#c
6	0.093	3.24287133403	#oh
7	0.1463	3.04812087425	#o
8	0.1636	3.18086478325	#n
9	0.0208	2.42199725514	#h1
10	0.0047	0.537924646013	#ho
11	0.01	1.10649620793	#hn
12	0.0988	3.31521230994	#cc
13	0.0988	3.31521230994	#cd
14	0.0941	3.38416787073	#nd
15	0.2042	3.20580994736	#na
16	0.0161	2.53638865055	#h4
17	0.0941	3.38416787073	#n2
18	0.0988	3.31521230994	#c2
19	0.215	3.18995195017	#nh
20	3.8748	2.49950544361	#n4
21	0.0858	3.36510263816	#n3
22	0.0161	2.44729877873	#h5

Bond Coeffs

1	378.57	1.398	#ca-ca
2	395.72	1.086	#ca-ha
3	250.32	1.516	#c3-ca
4	232.52	1.538	#c3-c3
5	375.92	1.097	#c3-hc
6	243.22	1.524	#c-c3
7	263.77	1.462	#c3-n
8	375.92	1.097	#c3-h1
9	383.13	1.351	#c-oh
10	652.57	1.218	#c-o
11	563.51	0.973	#ho-oh
12	356.21	1.379	#c-n
13	527.31	1.013	#hn-n
14	262.64	1.502	#c3-cc
15	416.13	1.373	#cc-cd
16	354.49	1.38	#cc-na
17	369.1	1.369	#cd-nd
18	403.88	1.082	#cd-h4
19	450.71	1.317	#cc-nd
20	403.49	1.082	#cc-h5
21	535.14	1.01	#hn-na
22	365.55	1.364	#ca-oh
23	259.91	1.466	#c3-n2
24	518.67	1.282	#c2-n2
25	345.39	1.387	#c2-nh
26	221.45	1.512	#c2-n4
27	529.46	1.012	#hn-nh
28	482.87	1.03	#hn-n4
29	261.19	1.465	#c3-n3
30	511.28	1.019	#hn-n3

Angle Coeffs

1	68.767	120.02	#ca-ca-ca
2	48.68	119.88	#ca-ca-ha
3	65.583	120.77	#c3-ca-ca
4	65.183	112.07	#c3-c3-ca
5	47.281	110.47	#ca-c3-hc
6	46.816	109.8	#c3-c3-hc
7	38.96	107.58	#hc-c3-hc
8	65.307	111.04	#c-c3-c3
9	83.161	111.61	#c3-c3-n
10	84.54	109.06	#c-c3-n
11	46.868	109.56	#c3-c3-h1
12	47.531	108.22	#c-c3-h1
13	61.544	108.88	#h1-c3-n
14	85.803	112.73	#c3-c-oh
15	84.552	123.2	#c3-c-o
16	115.745	122.1	#o-c-oh
17	51.617	106.55	#c-oh-ho
18	65.252	120.69	#c-n-c3
19	46.147	117.68	#c3-n-hn
20	48.691	117.55	#c-n-hn
21	113.811	123.05	#n-c-o
22	84.266	115.18	#c3-c-n
23	64.888	111.51	#c3-c3-c3
24	64.88	115.64	#c3-n-c3
25	38.802	108.46	#h1-c3-h1
26	65.515	111.93	#c3-c3-cc
27	47.671	110.49	#cc-c3-hc
28	66.802	119.45	#c3-cc-cd
29	82.356	122.73	#c3-cc-na
30	92.653	106.99	#cd-cc-na
31	91.057	111.65	#cc-cd-nd
32	47.759	128.48	#cc-cd-h4
33	61.716	121.14	#h4-cd-nd
34	73.871	105.49	#cc-nd-cd
35	70.492	109.9	#cc-na-cc
36	115.504	112.22	#na-cc-nd
37	62.461	125.52	#h5-cc-nd
38	61.226	121.55	#h5-cc-na
39	47.101	125.5	#cc-na-hn
40	87.211	119.9	#ca-ca-oh
41	50.712	108.58	#ca-oh-ho
42	84.123	108.8	#c3-c3-n2
43	61.133	109.81	#h1-c3-n2
44	68.517	115.3	#c2-n2-c3
45	110.708	124.27	#n2-c2-nh
46	109.745	112.97	#n2-c2-n4
47	106.945	111.23	#n4-c2-nh
48	48.954	115.09	#c2-nh-hn
49	39.519	115.12	#hn-nh-hn
50	46.094	110.37	#c2-n4-hn
51	40.02	108.3	#hn-n4-hn
52	83.673	111.14	#c-c3-n3
53	83.305	111.04	#c3-c3-n3
54	61.163	109.88	#h1-c3-n3
55	47.782	109.29	#c3-n3-hn
56	40.828	106.4	#hn-n3-hn
57	47.411	108.77	#c-c3-hc

Dihedral Coeffs

1	1	3.625	2	180.0	#X-ca-ca-X
2	1	0.245	2	180.0	#c3-c3-ca-ca
3	1	0.0	2	180.0	#hc-c3-ca-ca
4	1	0.1	3	0.0	#ca-c3-c3-c
5	1	0.155555555556	3	0.0	#X-c3-c3-X
6	1	0.21	3	0.0	#ca-c3-c3-n
7	1	0.0	2	180.0	#X-c-c3-X
8	1	0.27	2	180.0	#o-c-c3-c3
9	3	0.03	2	180.0	0.55	3	180.0	0.74	1	0.0	#c3-c3-c-o
10	2	0.8	1	0.0	0.08	3	180.0	#h1-c3-c-o
11	1	1.78	2	180.0	#ho-oh-c-c3
12	2	2.3	2	180.0	1.9	1	0.0	#ho-oh-c-o
13	3	0.1	4	180.0	0.17	3	0.0	1.02	1	180.0	#c-n-c3-c3
14	3	0.65	4	180.0	0.03	3	180.0	2.26	1	0.0	#c3-c3-n-c
15	2	0.39	2	180.0	0.64	1	0.0	#c-c3-n-c
16	1	0.0	2	180.0	#h1-c3-n-c
17	1	0.0	2	0.0	#X-c3-n-X
18	1	2.5	2	180.0	#X-c-n-X
19	2	2.5	2	180.0	2.0	1	0.0	#hn-n-c-o
20	2	0.26	2	180.0	0.5	1	0.0	#c3-n-c-c3
21	2	0.0	4	180.0	0.71	2	180.0	#n-c-c3-c3
22	2	0.1	1	180.0	2.12	2	180.0	#n-c-c3-n
23	1	0.1	3	0.0	#c-c3-c3-c3
24	1	0.1	3	0.0	#n-c3-c3-c3
25	3	0.13	3	0.0	0.29	2	180.0	0.11	1	0.0	#c3-c3-c3-c3
26	1	0.08	3	0.0	#hc-c3-c3-c3
27	1	0.08	3	0.0	#c3-c3-c3-hc
28	1	0.12	3	0.0	#hc-c3-c3-hc
29	1	0.157	3	180.0	#cd-cc-c3-c3
30	1	0.0	3	0.0	#X-c3-cc-X
31	1	4.0	2	180.0	#X-cc-cd-X
32	1	4.75	2	180.0	#X-cd-nd-X
33	1	1.7	2	180.0	#X-cc-na-X
34	1	4.75	2	180.0	#X-cc-nd-X
35	1	0.835	2	180.0	#ho-oh-ca-ca
36	1	0.0	3	0.0	#X-c3-n2-X
37	1	0.165	3	180.0	#h1-c3-n2-c2
38	1	4.15	2	180.0	#X-c2-n2-X
39	1	0.675	2	180.0	#X-c2-nh-X
40	1	0.0	3	180.0	#X-c2-n4-X
41	1	0.3	3	0.0	#X-c3-n3-X
42	1	0.217	3	0.0	#hn-n3-c3-c3
43	1	0.1	3	0.0	#hc-c3-c3-n3
44	2	0.83	1	0.0	0.04	3	180.0	#o-c-c3-hc




Atoms

1	1	1	0.006802721088435	8.319	6.366	1.604
2	1	1	0.006802721088435	9.191	6.652	2.658
3	1	1	0.006802721088435	10.175	7.634	2.507
4	1	1	0.006802721088435	10.296	8.338	1.295
5	1	1	0.006802721088435	9.411	8.045	0.242
6	1	1	0.006802721088435	8.429	7.062	0.398
7	1	2	0.006802721088435	9.482	8.574	-0.701
8	1	2	0.006802721088435	7.753	6.84	-0.418
9	1	2	0.006802721088435	10.839	7.846	3.335
10	1	2	0.006802721088435	7.558	5.605	1.723
11	1	2	0.006802721088435	9.103	6.114	3.593
12	1	3	0.006802721088435	11.357	9.402	1.126
13	1	3	0.006802721088435	12.788	8.838	1.254
14	1	4	0.006802721088435	11.199	10.183	1.901
15	1	4	0.006802721088435	11.256	9.893	0.133
16	1	5	0.006802721088435	13.046	7.779	0.214
17	1	6	0.006802721088435	13.372	6.527	0.598
18	1	7	0.006802721088435	12.938	8.044	-0.974
19	1	8	0.006802721088435	13.748	9.926	1.106
20	1	9	0.006802721088435	12.886	8.366	2.254
21	1	5	0.006802721088435	14.591	10.314	2.108
22	1	7	0.006802721088435	14.594	9.719	3.177
23	1	3	0.006802721088435	15.525	11.5	1.953
24	1	3	0.006802721088435	14.742	12.785	1.647
25	1	3	0.006802721088435	15.815	13.647	1.031
26	1	4	0.006802721088435	14.22	13.225	2.523
27	1	4	0.006802721088435	13.994	12.602	0.845
28	1	3	0.006802721088435	16.535	12.656	0.118
29	1	4	0.006802721088435	16.511	13.935	1.852
30	1	4	0.006802721088435	15.464	14.572	0.525
31	1	8	0.006802721088435	16.477	11.407	0.855
32	1	9	0.006802721088435	17.566	13.04	-0.03
33	1	9	0.006802721088435	16.017	12.515	-0.856
34	1	9	0.006802721088435	16.117	11.625	2.889
35	1	10	0.006802721088435	13.535	5.827	-0.05
36	1	11	0.006802721088435	13.765	10.438	0.211
37	1	5	0.006802721088435	17.282	10.322	0.617
38	1	7	0.006802721088435	17.174	9.327	1.322
39	1	3	0.006802721088435	18.349	10.305	-0.479
40	1	3	0.006802721088435	18.058	9.177	-1.495
41	1	12	0.006802721088435	16.765	9.404	-2.221
42	1	4	0.006802721088435	18.041	8.195	-0.973
43	1	4	0.006802721088435	18.85	9.131	-2.269
44	1	13	0.006802721088435	15.678	8.562	-2.244
45	1	14	0.006802721088435	14.719	9.114	-3.014
46	1	12	0.006802721088435	15.243	10.281	-3.442
47	1	15	0.006802721088435	16.489	10.48	-2.976
48	1	11	0.006802721088435	17.106	11.301	-3.166
49	1	16	0.006802721088435	15.588	7.609	-1.739
50	1	8	0.006802721088435	19.664	10.128	0.132
51	1	9	0.006802721088435	18.361	11.266	-1.03
52	1	5	0.006802721088435	20.833	10.207	-0.575
53	1	11	0.006802721088435	19.7	9.983	1.15
54	1	7	0.006802721088435	20.802	10.477	-1.768
55	1	3	0.006802721088435	22.213	10.033	0.057
56	1	3	0.006802721088435	22.244	9.5	1.526
57	1	3	0.006802721088435	21.678	8.05	1.59
58	1	3	0.006802721088435	21.533	7.505	3.013
59	1	4	0.006802721088435	22.327	7.365	1.001
60	1	4	0.006802721088435	20.669	8.002	1.137
61	1	4	0.006802721088435	21.084	6.49	2.973
62	1	4	0.006802721088435	20.866	8.164	3.609
63	1	4	0.006802721088435	22.513	7.412	3.522
64	1	3	0.006802721088435	23.691	9.523	2.067
65	1	4	0.006802721088435	21.645	10.18	2.169
66	1	4	0.006802721088435	23.735	9.205	3.127
67	1	4	0.006802721088435	24.108	10.552	2.043
68	1	4	0.006802721088435	24.347	8.861	1.462
69	1	8	0.006802721088435	22.879	11.327	-0.024
70	1	9	0.006802721088435	22.75	9.272	-0.553
71	1	5	0.006802721088435	24.011	11.55	-0.754
72	1	3	0.006802721088435	24.628	12.949	-0.787
73	1	3	0.006802721088435	23.604	13.914	-1.45
74	1	1	0.006802721088435	23.966	15.374	-1.368
75	1	4	0.006802721088435	22.606	13.82	-0.971
76	1	4	0.006802721088435	23.486	13.601	-2.512
77	1	1	0.006802721088435	24.031	16.017	-0.119
78	1	1	0.006802721088435	24.361	17.373	-0.04
79	1	1	0.006802721088435	24.627	18.103	-1.203
80	1	1	0.006802721088435	24.558	17.468	-2.452
81	1	1	0.006802721088435	24.227	16.113	-2.535
82	1	6	0.006802721088435	24.946	19.41	-1.109
83	1	10	0.006802721088435	25.136	19.951	-1.888
84	1	7	0.006802721088435	24.535	10.627	-1.364
85	1	11	0.006802721088435	22.463	12.107	0.506
86	1	2	0.006802721088435	23.826	15.467	0.791
87	1	2	0.006802721088435	24.76	18.024	-3.359
88	1	2	0.006802721088435	24.179	15.64	-3.508
89	1	2	0.006802721088435	24.41	17.857	0.928
90	1	8	0.006802721088435	25.9	12.956	-1.522
91	1	9	0.006802721088435	24.817	13.212	0.277
92	1	5	0.006802721088435	26.835	13.948	-1.416
93	1	7	0.006802721088435	26.637	14.874	-0.643
94	1	3	0.006802721088435	28.16	13.992	-2.192
95	1	3	0.006802721088435	28.477	12.884	-3.258
96	1	3	0.006802721088435	28.71	11.48	-2.664
97	1	4	0.006802721088435	29.509	11.516	-1.897
98	1	4	0.006802721088435	29.044	10.787	-3.465
99	1	4	0.006802721088435	27.826	11.025	-2.188
100	1	3	0.006802721088435	27.48	12.872	-4.431
101	1	4	0.006802721088435	29.444	13.156	-3.729
102	1	4	0.006802721088435	26.45	12.593	-4.15
103	1	4	0.006802721088435	27.821	12.152	-5.206
104	1	4	0.006802721088435	27.441	13.879	-4.899
105	1	8	0.006802721088435	29.26	14.101	-1.233
106	1	9	0.006802721088435	28.103	14.958	-2.744
107	1	11	0.006802721088435	26.099	12.16	-2.123
108	1	5	0.006802721088435	30.504	14.557	-1.563
109	1	11	0.006802721088435	29.074	13.871	-0.244
110	1	3	0.006802721088435	31.585	14.687	-0.501
111	1	3	0.006802721088435	32.816	13.82	-0.869
112	1	7	0.006802721088435	30.758	14.898	-2.71
113	1	3	0.006802721088435	32.472	12.326	-0.978
114	1	4	0.006802721088435	33.596	13.929	-0.089
115	1	4	0.006802721088435	33.245	14.173	-1.833
116	1	3	0.006802721088435	33.714	11.493	-1.293
117	1	4	0.006802721088435	31.73	12.171	-1.788
118	1	4	0.006802721088435	32.037	11.978	-0.015
119	1	17	0.006802721088435	33.347	10.096	-1.38
120	1	9	0.006802721088435	34.464	11.63	-0.483
121	1	9	0.006802721088435	34.147	11.827	-2.262
122	1	18	0.006802721088435	34.167	9.127	-1.627
123	1	19	0.006802721088435	35.557	9.356	-1.843
124	1	20	0.006802721088435	33.67	7.798	-1.681
125	1	11	0.006802721088435	32.652	7.705	-1.547
126	1	11	0.006802721088435	34.177	7.195	-1.018
127	1	8	0.006802721088435	31.961	16.092	-0.366
128	1	9	0.006802721088435	31.176	14.34	0.474
129	1	5	0.006802721088435	32.8	16.558	0.603
130	1	11	0.006802721088435	31.556	16.78	-1.02
131	1	3	0.006802721088435	33.128	18.04	0.657
132	1	21	0.006802721088435	31.876	18.786	0.825
133	1	3	0.006802721088435	34.142	18.373	1.784
134	1	9	0.006802721088435	33.587	18.305	-0.322
135	1	5	0.006802721088435	34.652	19.794	1.79
136	1	4	0.006802721088435	35.035	17.721	1.666
137	1	4	0.006802721088435	33.677	18.154	2.769
138	1	6	0.006802721088435	35.53	20.166	2.746
139	1	7	0.006802721088435	34.309	20.601	0.939
140	1	7	0.006802721088435	33.276	15.793	1.431
141	1	11	0.006802721088435	32.026	19.815	0.735
142	1	11	0.006802721088435	31.456	18.582	1.761
143	1	10	0.006802721088435	35.889	21.063	2.781
144	1	11	0.006802721088435	36.183	8.561	-2.035
145	1	11	0.006802721088435	35.97	10.299	-1.815
146	1	22	0.006802721088435	14.722	10.974	-4.089
147	1	11	0.006802721088435	33.983	7.318	-2.537



Bonds

1	1	1	2
2	1	1	6
3	2	1	10
4	1	2	3
5	2	2	11
6	1	3	4
7	2	3	9
8	1	4	5
9	3	4	12
10	1	5	6
11	2	5	7
12	2	6	8
13	4	12	13
14	5	12	14
15	5	12	15
16	6	13	16
17	7	13	19
18	8	13	20
19	9	16	17
20	10	16	18
21	11	17	35
22	12	19	21
23	13	19	36
24	10	21	22
25	6	21	23
26	4	23	24
27	7	23	31
28	8	23	34
29	4	24	25
30	5	24	26
31	5	24	27
32	4	25	28
33	5	25	29
34	5	25	30
35	7	28	31
36	8	28	32
37	8	28	33
38	12	31	37
39	10	37	38
40	6	37	39
41	4	39	40
42	7	39	50
43	8	39	51
44	14	40	41
45	5	40	42
46	5	40	43
47	15	41	44
48	16	41	47
49	17	44	45
50	18	44	49
51	19	45	46
52	16	46	47
53	20	46	146
54	21	47	48
55	12	50	52
56	13	50	53
57	10	52	54
58	6	52	55
59	4	55	56
60	7	55	69
61	8	55	70
62	4	56	57
63	4	56	64
64	5	56	65
65	4	57	58
66	5	57	59
67	5	57	60
68	5	58	61
69	5	58	62
70	5	58	63
71	5	64	66
72	5	64	67
73	5	64	68
74	12	69	71
75	13	69	85
76	6	71	72
77	10	71	84
78	4	72	73
79	7	72	90
80	8	72	91
81	3	73	74
82	5	73	75
83	5	73	76
84	1	74	77
85	1	74	81
86	1	77	78
87	2	77	86
88	1	78	79
89	2	78	89
90	1	79	80
91	22	79	82
92	1	80	81
93	2	80	87
94	2	81	88
95	11	82	83
96	12	90	92
97	13	90	107
98	10	92	93
99	6	92	94
100	4	94	95
101	7	94	105
102	8	94	106
103	4	95	96
104	4	95	100
105	5	95	101
106	5	96	97
107	5	96	98
108	5	96	99
109	5	100	102
110	5	100	103
111	5	100	104
112	12	105	108
113	13	105	109
114	6	108	110
115	10	108	112
116	4	110	111
117	7	110	127
118	8	110	128
119	4	111	113
120	5	111	114
121	5	111	115
122	4	113	116
123	5	113	117
124	5	113	118
125	23	116	119
126	8	116	120
127	8	116	121
128	24	119	122
129	25	122	123
130	26	122	124
131	27	123	144
132	27	123	145
133	28	124	125
134	28	124	126
135	28	124	147
136	12	127	129
137	13	127	130
138	6	129	131
139	10	129	140
140	29	131	132
141	4	131	133
142	8	131	134
143	30	132	141
144	30	132	142
145	6	133	135
146	5	133	136
147	5	133	137
148	9	135	138
149	10	135	139
150	11	138	143


Angles

1	1	6	1	2
2	2	10	1	2
3	2	10	1	6
4	1	3	2	1
5	2	11	2	1
6	2	11	2	3
7	1	4	3	2
8	2	9	3	2
9	2	9	3	4
10	1	5	4	3
11	3	12	4	3
12	3	12	4	5
13	1	5	6	1
14	1	6	5	4
15	2	7	5	4
16	2	7	5	6
17	2	8	6	1
18	2	8	6	5
19	4	13	12	4
20	5	14	12	4
21	6	14	12	13
22	5	15	12	4
23	6	15	12	13
24	7	15	12	14
25	8	16	13	12
26	9	19	13	12
27	10	19	13	16
28	11	20	13	12
29	12	20	13	16
30	13	20	13	19
31	14	17	16	13
32	15	18	16	13
33	16	18	16	17
34	17	35	17	16
35	18	21	19	13
36	19	36	19	13
37	20	36	19	21
38	21	22	21	19
39	22	23	21	19
40	15	23	21	22
41	8	24	23	21
42	10	31	23	21
43	9	31	23	24
44	12	34	23	21
45	11	34	23	24
46	13	34	23	31
47	23	25	24	23
48	6	26	24	23
49	6	26	24	25
50	6	27	24	23
51	6	27	24	25
52	7	27	24	26
53	23	28	25	24
54	6	29	25	24
55	6	29	25	28
56	6	30	25	24
57	6	30	25	28
58	7	30	25	29
59	24	28	31	23
60	9	31	28	25
61	11	32	28	25
62	13	32	28	31
63	11	33	28	25
64	13	33	28	31
65	25	33	28	32
66	18	37	31	23
67	18	37	31	28
68	21	38	37	31
69	22	39	37	31
70	15	39	37	38
71	8	40	39	37
72	10	50	39	37
73	9	50	39	40
74	12	51	39	37
75	11	51	39	40
76	13	51	39	50
77	26	41	40	39
78	6	42	40	39
79	27	42	40	41
80	6	43	40	39
81	27	43	40	41
82	7	43	40	42
83	28	44	41	40
84	29	47	41	40
85	30	47	41	44
86	31	45	44	41
87	32	49	44	41
88	33	49	44	45
89	34	46	45	44
90	35	46	47	41
91	36	47	46	45
92	37	146	46	45
93	38	146	46	47
94	39	48	47	41
95	39	48	47	46
96	18	52	50	39
97	19	53	50	39
98	20	53	50	52
99	21	54	52	50
100	22	55	52	50
101	15	55	52	54
102	8	56	55	52
103	10	69	55	52
104	9	69	55	56
105	12	70	55	52
106	11	70	55	56
107	13	70	55	69
108	23	57	56	55
109	23	64	56	55
110	23	64	56	57
111	6	65	56	55
112	6	65	56	57
113	6	65	56	64
114	23	58	57	56
115	6	59	57	56
116	6	59	57	58
117	6	60	57	56
118	6	60	57	58
119	7	60	57	59
120	6	61	58	57
121	6	62	58	57
122	7	62	58	61
123	6	63	58	57
124	7	63	58	61
125	7	63	58	62
126	6	66	64	56
127	6	67	64	56
128	7	67	64	66
129	6	68	64	56
130	7	68	64	66
131	7	68	64	67
132	18	71	69	55
133	19	85	69	55
134	20	85	69	71
135	22	72	71	69
136	21	84	71	69
137	15	84	71	72
138	8	73	72	71
139	10	90	72	71
140	9	90	72	73
141	12	91	72	71
142	11	91	72	73
143	13	91	72	90
144	4	74	73	72
145	6	75	73	72
146	5	75	73	74
147	6	76	73	72
148	5	76	73	74
149	7	76	73	75
150	3	77	74	73
151	3	81	74	73
152	1	81	74	77
153	1	78	77	74
154	2	86	77	74
155	2	86	77	78
156	1	79	78	77
157	2	89	78	77
158	2	89	78	79
159	1	80	79	78
160	40	82	79	78
161	40	82	79	80
162	1	80	81	74
163	1	81	80	79
164	2	87	80	79
165	2	87	80	81
166	2	88	81	74
167	2	88	81	80
168	41	83	82	79
169	18	92	90	72
170	19	107	90	72
171	20	107	90	92
172	21	93	92	90
173	22	94	92	90
174	15	94	92	93
175	8	95	94	92
176	10	105	94	92
177	9	105	94	95
178	12	106	94	92
179	11	106	94	95
180	13	106	94	105
181	23	96	95	94
182	23	100	95	94
183	23	100	95	96
184	6	101	95	94
185	6	101	95	96
186	6	101	95	100
187	6	97	96	95
188	6	98	96	95
189	7	98	96	97
190	6	99	96	95
191	7	99	96	97
192	7	99	96	98
193	6	102	100	95
194	6	103	100	95
195	7	103	100	102
196	6	104	100	95
197	7	104	100	102
198	7	104	100	103
199	18	108	105	94
200	19	109	105	94
201	20	109	105	108
202	22	110	108	105
203	21	112	108	105
204	15	112	108	110
205	8	111	110	108
206	10	127	110	108
207	9	127	110	111
208	12	128	110	108
209	11	128	110	111
210	13	128	110	127
211	23	113	111	110
212	6	114	111	110
213	6	114	111	113
214	6	115	111	110
215	6	115	111	113
216	7	115	111	114
217	23	116	113	111
218	6	117	113	111
219	6	117	113	116
220	6	118	113	111
221	6	118	113	116
222	7	118	113	117
223	42	119	116	113
224	11	120	116	113
225	43	120	116	119
226	11	121	116	113
227	43	121	116	119
228	25	121	116	120
229	44	122	119	116
230	45	123	122	119
231	46	124	122	119
232	47	124	122	123
233	48	144	123	122
234	48	145	123	122
235	49	145	123	144
236	50	125	124	122
237	50	126	124	122
238	51	126	124	125
239	50	147	124	122
240	51	147	124	125
241	51	147	124	126
242	18	129	127	110
243	19	130	127	110
244	20	130	127	129
245	22	131	129	127
246	21	140	129	127
247	15	140	129	131
248	52	132	131	129
249	8	133	131	129
250	53	133	131	132
251	12	134	131	129
252	54	134	131	132
253	11	134	131	133
254	55	141	132	131
255	55	142	132	131
256	56	142	132	141
257	8	135	133	131
258	6	136	133	131
259	57	136	133	135
260	6	137	133	131
261	57	137	133	135
262	7	137	133	136
263	14	138	135	133
264	15	139	135	133
265	16	139	135	138
266	17	143	138	135


Dihedrals

1	1	3	2	1	6
2	1	3	2	1	10
3	1	11	2	1	6
4	1	11	2	1	10
5	1	4	3	2	1
6	1	4	3	2	11
7	1	9	3	2	1
8	1	9	3	2	11
9	1	5	4	3	2
10	1	5	4	3	9
11	1	12	4	3	2
12	1	12	4	3	9
13	1	5	6	1	2
14	1	5	6	1	10
15	1	6	5	4	3
16	1	6	5	4	12
17	1	4	5	6	1
18	1	7	5	4	3
19	1	7	5	4	12
20	1	7	5	6	1
21	1	8	6	1	2
22	1	8	6	1	10
23	1	8	6	5	4
24	1	8	6	5	7
25	2	13	12	4	3
26	2	13	12	4	5
27	3	14	12	4	3
28	3	14	12	4	5
29	3	15	12	4	3
30	3	15	12	4	5
31	4	16	13	12	4
32	5	16	13	12	14
33	5	16	13	12	15
34	6	19	13	12	4
35	5	19	13	12	14
36	5	19	13	12	15
37	5	20	13	12	4
38	5	20	13	12	14
39	5	20	13	12	15
40	7	17	16	13	12
41	7	17	16	13	19
42	7	17	16	13	20
43	8	18	16	13	12
44	7	18	16	13	19
45	10	18	16	13	20
46	11	35	17	16	13
47	12	35	17	16	18
48	13	21	19	13	12
49	15	21	19	13	16
50	16	21	19	13	20
51	17	36	19	13	12
52	17	36	19	13	16
53	17	36	19	13	20
54	18	22	21	19	13
55	19	22	21	19	36
56	20	23	21	19	13
57	18	23	21	19	36
58	21	24	23	21	19
59	8	24	23	21	22
60	22	31	23	21	19
61	7	31	23	21	22
62	7	34	23	21	19
63	10	34	23	21	22
64	23	25	24	23	21
65	24	25	24	23	31
66	5	25	24	23	34
67	5	26	24	23	21
68	5	26	24	23	31
69	5	26	24	23	34
70	5	27	24	23	21
71	5	27	24	23	31
72	5	27	24	23	34
73	25	28	25	24	23
74	26	28	25	24	26
75	26	28	25	24	27
76	26	29	25	24	23
77	28	29	25	24	26
78	28	29	25	24	27
79	26	30	25	24	23
80	28	30	25	24	26
81	28	30	25	24	27
82	17	28	31	23	21
83	17	28	31	23	24
84	17	28	31	23	34
85	24	31	28	25	24
86	5	31	28	25	29
87	5	31	28	25	30
88	17	25	28	31	23
89	5	32	28	25	24
90	5	32	28	25	29
91	5	32	28	25	30
92	17	32	28	31	23
93	5	33	28	25	24
94	5	33	28	25	29
95	5	33	28	25	30
96	17	33	28	31	23
97	15	37	31	23	21
98	13	37	31	23	24
99	16	37	31	23	34
100	13	37	31	28	25
101	16	37	31	28	32
102	16	37	31	28	33
103	18	38	37	31	23
104	18	38	37	31	28
105	20	39	37	31	23
106	20	39	37	31	28
107	21	40	39	37	31
108	8	40	39	37	38
109	22	50	39	37	31
110	7	50	39	37	38
111	7	51	39	37	31
112	10	51	39	37	38
113	5	41	40	39	37
114	5	41	40	39	50
115	5	41	40	39	51
116	5	42	40	39	37
117	5	42	40	39	50
118	5	42	40	39	51
119	5	43	40	39	37
120	5	43	40	39	50
121	5	43	40	39	51
122	29	44	41	40	39
123	30	44	41	40	42
124	30	44	41	40	43
125	30	47	41	40	39
126	30	47	41	40	42
127	30	47	41	40	43
128	31	45	44	41	40
129	31	45	44	41	47
130	31	49	44	41	40
131	31	49	44	41	47
132	32	46	45	44	41
133	32	46	45	44	49
134	33	46	47	41	40
135	33	46	47	41	44
136	34	47	46	45	44
137	33	45	46	47	41
138	34	146	46	45	44
139	33	146	46	47	41
140	33	48	47	41	40
141	33	48	47	41	44
142	33	48	47	46	45
143	33	48	47	46	146
144	15	52	50	39	37
145	13	52	50	39	40
146	16	52	50	39	51
147	17	53	50	39	37
148	17	53	50	39	40
149	17	53	50	39	51
150	18	54	52	50	39
151	19	54	52	50	53
152	20	55	52	50	39
153	18	55	52	50	53
154	21	56	55	52	50
155	8	56	55	52	54
156	22	69	55	52	50
157	7	69	55	52	54
158	7	70	55	52	50
159	10	70	55	52	54
160	23	57	56	55	52
161	24	57	56	55	69
162	5	57	56	55	70
163	23	64	56	55	52
164	24	64	56	55	69
165	5	64	56	55	70
166	5	65	56	55	52
167	5	65	56	55	69
168	5	65	56	55	70
169	25	58	57	56	55
170	25	58	57	56	64
171	26	58	57	56	65
172	26	59	57	56	55
173	26	59	57	56	64
174	28	59	57	56	65
175	26	60	57	56	55
176	26	60	57	56	64
177	28	60	57	56	65
178	26	61	58	57	56
179	28	61	58	57	59
180	28	61	58	57	60
181	26	62	58	57	56
182	28	62	58	57	59
183	28	62	58	57	60
184	26	63	58	57	56
185	28	63	58	57	59
186	28	63	58	57	60
187	26	66	64	56	55
188	26	66	64	56	57
189	28	66	64	56	65
190	26	67	64	56	55
191	26	67	64	56	57
192	28	67	64	56	65
193	26	68	64	56	55
194	26	68	64	56	57
195	28	68	64	56	65
196	15	71	69	55	52
197	13	71	69	55	56
198	16	71	69	55	70
199	17	85	69	55	52
200	17	85	69	55	56
201	17	85	69	55	70
202	20	72	71	69	55
203	18	72	71	69	85
204	18	84	71	69	55
205	19	84	71	69	85
206	21	73	72	71	69
207	8	73	72	71	84
208	22	90	72	71	69
209	7	90	72	71	84
210	7	91	72	71	69
211	10	91	72	71	84
212	4	74	73	72	71
213	6	74	73	72	90
214	5	74	73	72	91
215	5	75	73	72	71
216	5	75	73	72	90
217	5	75	73	72	91
218	5	76	73	72	71
219	5	76	73	72	90
220	5	76	73	72	91
221	2	77	74	73	72
222	3	77	74	73	75
223	3	77	74	73	76
224	2	81	74	73	72
225	3	81	74	73	75
226	3	81	74	73	76
227	1	78	77	74	73
228	1	78	77	74	81
229	1	86	77	74	73
230	1	86	77	74	81
231	1	79	78	77	74
232	1	79	78	77	86
233	1	89	78	77	74
234	1	89	78	77	86
235	1	80	79	78	77
236	1	80	79	78	89
237	1	82	79	78	77
238	1	82	79	78	89
239	1	80	81	74	73
240	1	80	81	74	77
241	1	81	80	79	78
242	1	81	80	79	82
243	1	79	80	81	74
244	1	87	80	79	78
245	1	87	80	79	82
246	1	87	80	81	74
247	1	88	81	74	73
248	1	88	81	74	77
249	1	88	81	80	79
250	1	88	81	80	87
251	35	83	82	79	78
252	35	83	82	79	80
253	15	92	90	72	71
254	13	92	90	72	73
255	16	92	90	72	91
256	17	107	90	72	71
257	17	107	90	72	73
258	17	107	90	72	91
259	18	93	92	90	72
260	19	93	92	90	107
261	20	94	92	90	72
262	18	94	92	90	107
263	21	95	94	92	90
264	8	95	94	92	93
265	22	105	94	92	90
266	7	105	94	92	93
267	7	106	94	92	90
268	10	106	94	92	93
269	23	96	95	94	92
270	24	96	95	94	105
271	5	96	95	94	106
272	23	100	95	94	92
273	24	100	95	94	105
274	5	100	95	94	106
275	5	101	95	94	92
276	5	101	95	94	105
277	5	101	95	94	106
278	26	97	96	95	94
279	26	97	96	95	100
280	28	97	96	95	101
281	26	98	96	95	94
282	26	98	96	95	100
283	28	98	96	95	101
284	26	99	96	95	94
285	26	99	96	95	100
286	28	99	96	95	101
287	26	102	100	95	94
288	26	102	100	95	96
289	28	102	100	95	101
290	26	103	100	95	94
291	26	103	100	95	96
292	28	103	100	95	101
293	26	104	100	95	94
294	26	104	100	95	96
295	28	104	100	95	101
296	15	108	105	94	92
297	13	108	105	94	95
298	16	108	105	94	106
299	17	109	105	94	92
300	17	109	105	94	95
301	17	109	105	94	106
302	20	110	108	105	94
303	18	110	108	105	109
304	18	112	108	105	94
305	19	112	108	105	109
306	21	111	110	108	105
307	8	111	110	108	112
308	22	127	110	108	105
309	7	127	110	108	112
310	7	128	110	108	105
311	10	128	110	108	112
312	23	113	111	110	108
313	24	113	111	110	127
314	5	113	111	110	128
315	5	114	111	110	108
316	5	114	111	110	127
317	5	114	111	110	128
318	5	115	111	110	108
319	5	115	111	110	127
320	5	115	111	110	128
321	25	116	113	111	110
322	26	116	113	111	114
323	26	116	113	111	115
324	26	117	113	111	110
325	28	117	113	111	114
326	28	117	113	111	115
327	26	118	113	111	110
328	28	118	113	111	114
329	28	118	113	111	115
330	5	119	116	113	111
331	5	119	116	113	117
332	5	119	116	113	118
333	5	120	116	113	111
334	5	120	116	113	117
335	5	120	116	113	118
336	5	121	116	113	111
337	5	121	116	113	117
338	5	121	116	113	118
339	36	122	119	116	113
340	37	122	119	116	120
341	37	122	119	116	121
342	38	123	122	119	116
343	38	124	122	119	116
344	39	144	123	122	119
345	39	144	123	122	124
346	39	145	123	122	119
347	39	145	123	122	124
348	40	125	124	122	119
349	40	125	124	122	123
350	40	126	124	122	119
351	40	126	124	122	123
352	40	147	124	122	119
353	40	147	124	122	123
354	15	129	127	110	108
355	13	129	127	110	111
356	16	129	127	110	128
357	17	130	127	110	108
358	17	130	127	110	111
359	17	130	127	110	128
360	20	131	129	127	110
361	18	131	129	127	130
362	18	140	129	127	110
363	19	140	129	127	130
364	7	132	131	129	127
365	7	132	131	129	140
366	21	133	131	129	127
367	8	133	131	129	140
368	7	134	131	129	127
369	10	134	131	129	140
370	41	141	132	131	129
371	42	141	132	131	133
372	41	141	132	131	134
373	41	142	132	131	129
374	42	142	132	131	133
375	41	142	132	131	134
376	5	135	133	131	129
377	5	135	133	131	132
378	5	135	133	131	134
379	5	136	133	131	129
380	43	136	133	131	132
381	5	136	133	131	134
382	5	137	133	131	129
383	43	137	133	131	132
384	5	137	133	131	134
385	7	138	135	133	131
386	7	138	135	133	136
387	7	138	135	133	137
388	8	139	135	133	131
389	44	139	135	133	136
390	44	139	135	133	137
391	11	143	138	135	133
392	12	143	138	135	139
