LAMMPS (23 Jun 2022)

# Initialization
units		real
atom_style	full
boundary	p p p
pair_style	lj/cut/coul/cut	100.0

bond_style      harmonic
angle_style     harmonic
dihedral_style	fourier
read_data	angioII+1.lam
Reading data file ...
  orthogonal box = (-300 -300 -300) to (300 300 300)
  1 by 1 by 1 MPI processor grid
  reading atoms ...
  147 atoms
  scanning bonds ...
  3 = max bonds/atom
  scanning angles ...
  6 = max angles/atom
  scanning dihedrals ...
  12 = max dihedrals/atom
  reading bonds ...
  150 bonds
  reading angles ...
  266 angles
  reading dihedrals ...
  392 dihedrals
Finding 1-2 1-3 1-4 neighbors ...
  special bond factors lj:    0        0        0       
  special bond factors coul:  0        0        0       
     4 = max # of 1-2 neighbors
     9 = max # of 1-3 neighbors
    19 = max # of 1-4 neighbors
    21 = max # of special neighbors
  special bonds CPU = 0.000 seconds
  read_data CPU = 0.002 seconds

pair_coeff	1	2	0.0359165699921	2.99965598397
pair_coeff	1	3	0.0969969071672	3.39966950842
pair_coeff	1	4	0.0367450676962	3.02460114808
pair_coeff	1	5	0.086	3.39966950842
pair_coeff	1	6	0.134515426625	3.23307144813
pair_coeff	1	7	0.134387499419	3.17979570479
pair_coeff	1	8	0.120913192002	3.3248340161
pair_coeff	1	9	0.0367450676962	2.93551127627
pair_coeff	1	10	0.120913192002	3.19984092594
pair_coeff	1	11	0.00293257565972	1.74983475421
pair_coeff	1	12	0.0367450676962	2.23437398509
pair_coeff	1	13	0.086	3.39966950842
pair_coeff	1	14	0.120913192002	3.3248340161
pair_coeff	1	15	0.120913192002	3.3248340161
pair_coeff	2	3	0.0405092582011	2.99965598397
pair_coeff	2	4	0.0153460092532	2.62458762364
pair_coeff	2	5	0.0359165699921	2.99965598397
pair_coeff	2	6	0.0561782876208	2.83305792368
pair_coeff	2	7	0.0561248608016	2.77978218034
pair_coeff	2	8	0.0504975246918	2.92482049165
pair_coeff	2	9	0.0153460092532	2.53549775182
pair_coeff	2	10	0.0504975246918	2.7998274015
pair_coeff	2	11	0.00122474487139	1.34982122977
pair_coeff	2	12	0.0153460092532	1.83436046065
pair_coeff	2	13	0.0359165699921	2.99965598397
pair_coeff	2	14	0.0504975246918	2.92482049165
pair_coeff	2	15	0.0504975246918	2.92482049165
pair_coeff	3	4	0.0414436967463	3.02460114808
pair_coeff	3	5	0.0969969071672	3.39966950842
pair_coeff	3	6	0.151716050568	3.23307144813
pair_coeff	3	7	0.151571765181	3.17979570479
pair_coeff	3	8	0.136374484417	3.3248340161
pair_coeff	3	9	0.0414436967463	2.93551127627
pair_coeff	3	10	0.136374484417	3.19984092594
pair_coeff	3	11	0.00330756708171	1.74983475421
pair_coeff	3	12	0.0414436967463	2.23437398509
pair_coeff	3	13	0.0969969071672	3.39966950842
pair_coeff	3	14	0.136374484417	3.3248340161
pair_coeff	3	15	0.136374484417	3.3248340161
pair_coeff	4	5	0.0367450676962	3.02460114808
pair_coeff	4	6	0.0574741681106	2.85800308779
pair_coeff	4	7	0.0574195088798	2.80472734445
pair_coeff	4	8	0.0516623654124	2.94976565576
pair_coeff	4	9	0.0157	2.56044291593
pair_coeff	4	10	0.0516623654124	2.82477256561
pair_coeff	4	11	0.00125299640861	1.37476639388
pair_coeff	4	12	0.0157	1.85930562476
pair_coeff	4	13	0.0367450676962	3.02460114808
pair_coeff	4	14	0.0516623654124	2.94976565576
pair_coeff	4	15	0.0516623654124	2.94976565576
pair_coeff	5	6	0.134515426625	3.23307144813
pair_coeff	5	7	0.134387499419	3.17979570479
pair_coeff	5	8	0.120913192002	3.3248340161
pair_coeff	5	9	0.0367450676962	2.93551127627
pair_coeff	5	10	0.120913192002	3.19984092594
pair_coeff	5	11	0.00293257565972	1.74983475421
pair_coeff	5	12	0.0367450676962	2.23437398509
pair_coeff	5	13	0.086	3.39966950842
pair_coeff	5	14	0.120913192002	3.3248340161
pair_coeff	5	15	0.120913192002	3.3248340161
pair_coeff	6	7	0.210199904852	3.01319764449
pair_coeff	6	8	0.189124297752	3.15823595581
pair_coeff	6	9	0.0574741681106	2.76891321598
pair_coeff	6	10	0.189124297752	3.03324286565
pair_coeff	6	11	0.00458693797647	1.58323669392
pair_coeff	6	12	0.0574741681106	2.0677759248
pair_coeff	6	13	0.134515426625	3.23307144813
pair_coeff	6	14	0.189124297752	3.15823595581
pair_coeff	6	15	0.189124297752	3.15823595581
pair_coeff	7	8	0.188944436277	3.10496021246
pair_coeff	7	9	0.0574195088798	2.71563747263
pair_coeff	7	10	0.188944436277	2.97996712231
pair_coeff	7	11	0.00458257569496	1.52996095058
pair_coeff	7	12	0.0574195088798	2.01450018146
pair_coeff	7	13	0.134387499419	3.17979570479
pair_coeff	7	14	0.188944436277	3.10496021246
pair_coeff	7	15	0.188944436277	3.10496021246
pair_coeff	8	9	0.0516623654124	2.86067578395
pair_coeff	8	10	0.17	3.12500543362
pair_coeff	8	11	0.00412310562562	1.67499926189
pair_coeff	8	12	0.0516623654124	2.15953849277
pair_coeff	8	13	0.120913192002	3.3248340161
pair_coeff	8	14	0.17	3.24999852378
pair_coeff	8	15	0.17	3.24999852378
pair_coeff	9	10	0.0516623654124	2.73568269379
pair_coeff	9	11	0.00125299640861	1.28567652206
pair_coeff	9	12	0.0157	1.77021575294
pair_coeff	9	13	0.0367450676962	2.93551127627
pair_coeff	9	14	0.0516623654124	2.86067578395
pair_coeff	9	15	0.0516623654124	2.86067578395
pair_coeff	10	11	0.00412310562562	1.55000617173
pair_coeff	10	12	0.0516623654124	2.03454540262
pair_coeff	10	13	0.120913192002	3.19984092594
pair_coeff	10	14	0.17	3.12500543362
pair_coeff	10	15	0.17	3.12500543362
pair_coeff	11	12	0.00125299640861	0.584539230885
pair_coeff	11	13	0.00293257565972	1.74983475421
pair_coeff	11	14	0.00412310562562	1.67499926189
pair_coeff	11	15	0.00412310562562	1.67499926189
pair_coeff	12	13	0.0367450676962	2.23437398509
pair_coeff	12	14	0.0516623654124	2.15953849277
pair_coeff	12	15	0.0516623654124	2.15953849277
pair_coeff	13	14	0.120913192002	3.3248340161
pair_coeff	13	15	0.120913192002	3.3248340161
pair_coeff	14	15	0.17	3.24999852378

dump            1 all custom 1000000 a.dump id type xs ys zs ix iy iz q
velocity 	all create 1000 123
fix	1 all nvt temp 300 300 100 tchain 3
fix 2 all qeq/dynamic 1 10 1.0e-3 100 param.qeq2

thermo_style	multi
thermo          100000
timestep	1
run		100000000
Generated 126 of 231 mixed pair_coeff terms from geometric mixing rule
WARNING: Fix qeq/dynamic group is not charge neutral, net charge = 1 (../fix_qeq.cpp:323)
Neighbor list info ...
  update every 1 steps, delay 10 steps, check yes
  max neighbors/atom: 2000, page size: 100000
  master list distance cutoff = 102
  ghost atom cutoff = 102
  binsize = 51, bins = 12 12 12
  2 neighbor lists, perpetual/occasional/extra = 2 0 0
  (1) pair lj/cut/coul/cut, perpetual
      attributes: half, newton on
      pair build: half/bin/newton
      stencil: half/bin/3d
      bin: standard
  (2) fix qeq/dynamic, perpetual, copy from (1)
      attributes: half, newton on
      pair build: copy
      stencil: none
      bin: none
Per MPI rank memory allocation (min/avg/max) = 17.31 | 17.31 | 17.31 Mbytes
------------ Step              0 ----- CPU =            0 (sec) -------------
TotEng   =       469.9944 KinEng   =       435.1983 Temp     =      1000.0000 
PotEng   =        34.7962 E_bond   =        11.9120 E_angle  =        61.8244 
E_dihed  =        58.5715 E_impro  =         0.0000 E_vdwl   =       -16.3270 
E_coul   =       -81.1848 E_long   =         0.0000 Press    =         0.0332
------------ Step         100000 ----- CPU =     14.31558 (sec) -------------
TotEng   =       195.5428 KinEng   =       156.8259 Temp     =       360.3552 
PotEng   =        38.7168 E_bond   =        47.6023 E_angle  =        72.6855 
E_dihed  =        64.1690 E_impro  =         0.0000 E_vdwl   =       -37.2497 
E_coul   =      -108.4903 E_long   =         0.0000 Press    =        -0.0611
------------ Step         200000 ----- CPU =     28.62519 (sec) -------------
TotEng   =       160.4577 KinEng   =       120.3695 Temp     =       276.5853 
PotEng   =        40.0883 E_bond   =        48.6733 E_angle  =        77.5730 
E_dihed  =        67.6397 E_impro  =         0.0000 E_vdwl   =       -38.7338 
E_coul   =      -115.0640 E_long   =         0.0000 Press    =         0.0042
------------ Step         300000 ----- CPU =     43.37577 (sec) -------------
TotEng   =       137.5989 KinEng   =       114.2847 Temp     =       262.6038 
PotEng   =        23.3142 E_bond   =        43.1806 E_angle  =        62.1373 
E_dihed  =        72.1855 E_impro  =         0.0000 E_vdwl   =       -34.6150 
E_coul   =      -119.5742 E_long   =         0.0000 Press    =         0.0025
------------ Step         400000 ----- CPU =     58.26923 (sec) -------------
TotEng   =       156.3193 KinEng   =       128.3053 Temp     =       294.8204 
PotEng   =        28.0139 E_bond   =        41.3936 E_angle  =        72.0798 
E_dihed  =        78.0392 E_impro  =         0.0000 E_vdwl   =       -50.3324 
E_coul   =      -113.1664 E_long   =         0.0000 Press    =        -0.0269
------------ Step         500000 ----- CPU =     73.39592 (sec) -------------
TotEng   =       174.7248 KinEng   =       131.1261 Temp     =       301.3021 
PotEng   =        43.5987 E_bond   =        51.5709 E_angle  =        78.0232 
E_dihed  =        71.1124 E_impro  =         0.0000 E_vdwl   =       -40.4170 
E_coul   =      -116.6909 E_long   =         0.0000 Press    =         0.0044
------------ Step         600000 ----- CPU =     88.32478 (sec) -------------
TotEng   =       166.5980 KinEng   =       137.2206 Temp     =       315.3060 
PotEng   =        29.3774 E_bond   =        42.8349 E_angle  =        64.1731 
E_dihed  =        71.3031 E_impro  =         0.0000 E_vdwl   =       -33.1347 
E_coul   =      -115.7990 E_long   =         0.0000 Press    =         0.0069
------------ Step         700000 ----- CPU =     102.9909 (sec) -------------
TotEng   =       156.0400 KinEng   =       132.6931 Temp     =       304.9026 
PotEng   =        23.3469 E_bond   =        40.5659 E_angle  =        73.1794 
E_dihed  =        67.3292 E_impro  =         0.0000 E_vdwl   =       -40.5001 
E_coul   =      -117.2274 E_long   =         0.0000 Press    =         0.0114
------------ Step         800000 ----- CPU =      118.287 (sec) -------------
TotEng   =       135.0724 KinEng   =       135.7468 Temp     =       311.9194 
PotEng   =        -0.6744 E_bond   =        36.2324 E_angle  =        58.2773 
E_dihed  =        62.0422 E_impro  =         0.0000 E_vdwl   =       -39.0063 
E_coul   =      -118.2199 E_long   =         0.0000 Press    =         0.0029
------------ Step         900000 ----- CPU =     133.9082 (sec) -------------
TotEng   =       116.3438 KinEng   =       121.6914 Temp     =       279.6230 
PotEng   =        -5.3477 E_bond   =        34.2985 E_angle  =        55.9431 
E_dihed  =        67.8900 E_impro  =         0.0000 E_vdwl   =       -43.8976 
E_coul   =      -119.5817 E_long   =         0.0000 Press    =         0.0055
------------ Step        1000000 ----- CPU =     149.5108 (sec) -------------
TotEng   =       128.3564 KinEng   =       126.4727 Temp     =       290.6095 
PotEng   =         1.8837 E_bond   =        34.0654 E_angle  =        57.2364 
E_dihed  =        70.6046 E_impro  =         0.0000 E_vdwl   =       -39.6414 
E_coul   =      -120.3813 E_long   =         0.0000 Press    =         0.0299
------------ Step        1100000 ----- CPU =     165.1728 (sec) -------------
TotEng   =       146.6057 KinEng   =       137.2958 Temp     =       315.4787 
PotEng   =         9.3099 E_bond   =        35.4002 E_angle  =        54.2662 
E_dihed  =        71.2776 E_impro  =         0.0000 E_vdwl   =       -33.2322 
E_coul   =      -118.4020 E_long   =         0.0000 Press    =         0.0083
------------ Step        1200000 ----- CPU =     180.7962 (sec) -------------
TotEng   =       135.5648 KinEng   =       133.6393 Temp     =       307.0768 
PotEng   =         1.9255 E_bond   =        33.6404 E_angle  =        68.8890 
E_dihed  =        60.5640 E_impro  =         0.0000 E_vdwl   =       -40.5149 
E_coul   =      -120.6530 E_long   =         0.0000 Press    =         0.0142
------------ Step        1300000 ----- CPU =     196.8934 (sec) -------------
TotEng   =       160.8001 KinEng   =       134.4425 Temp     =       308.9223 
PotEng   =        26.3577 E_bond   =        45.6316 E_angle  =        79.1490 
E_dihed  =        69.6201 E_impro  =         0.0000 E_vdwl   =       -42.3252 
E_coul   =      -125.7178 E_long   =         0.0000 Press    =        -0.0288
------------ Step        1400000 ----- CPU =     212.6742 (sec) -------------
TotEng   =       136.8891 KinEng   =       123.3499 Temp     =       283.4339 
PotEng   =        13.5391 E_bond   =        34.9895 E_angle  =        67.1111 
E_dihed  =        68.2532 E_impro  =         0.0000 E_vdwl   =       -36.3796 
E_coul   =      -120.4351 E_long   =         0.0000 Press    =         0.0093
------------ Step        1500000 ----- CPU =      228.579 (sec) -------------
TotEng   =        85.7428 KinEng   =       120.5554 Temp     =       277.0127 
PotEng   =       -34.8127 E_bond   =        25.0745 E_angle  =        43.0133 
E_dihed  =        70.3858 E_impro  =         0.0000 E_vdwl   =       -46.6151 
E_coul   =      -126.6711 E_long   =         0.0000 Press    =        -0.0035
------------ Step        1600000 ----- CPU =     244.4676 (sec) -------------
TotEng   =        68.0098 KinEng   =       121.3175 Temp     =       278.7638 
PotEng   =       -53.3078 E_bond   =        20.7261 E_angle  =        41.9907 
E_dihed  =        61.1926 E_impro  =         0.0000 E_vdwl   =       -51.4202 
E_coul   =      -125.7970 E_long   =         0.0000 Press    =         0.0041
------------ Step        1700000 ----- CPU =     260.3774 (sec) -------------
TotEng   =        70.1540 KinEng   =       129.7984 Temp     =       298.2513 
PotEng   =       -59.6444 E_bond   =        19.3564 E_angle  =        38.4157 
E_dihed  =        57.1246 E_impro  =         0.0000 E_vdwl   =       -44.8864 
E_coul   =      -129.6548 E_long   =         0.0000 Press    =        -0.0315
------------ Step        1800000 ----- CPU =     275.5418 (sec) -------------
TotEng   =        59.5912 KinEng   =       129.8859 Temp     =       298.4522 
PotEng   =       -70.2947 E_bond   =        16.3587 E_angle  =        34.3604 
E_dihed  =        58.9229 E_impro  =         0.0000 E_vdwl   =       -49.3877 
E_coul   =      -130.5490 E_long   =         0.0000 Press    =         0.0531
------------ Step        1900000 ----- CPU =      290.616 (sec) -------------
TotEng   =        54.8038 KinEng   =       129.9761 Temp     =       298.6595 
PotEng   =       -75.1723 E_bond   =        16.0810 E_angle  =        28.6190 
E_dihed  =        61.9399 E_impro  =         0.0000 E_vdwl   =       -50.2375 
E_coul   =      -131.5747 E_long   =         0.0000 Press    =         0.0067
------------ Step        2000000 ----- CPU =     305.5454 (sec) -------------
TotEng   =        59.7718 KinEng   =       133.5138 Temp     =       306.7886 
PotEng   =       -73.7421 E_bond   =        14.7412 E_angle  =        31.7873 
E_dihed  =        59.9126 E_impro  =         0.0000 E_vdwl   =       -50.9734 
E_coul   =      -129.2098 E_long   =         0.0000 Press    =         0.0015
------------ Step        2100000 ----- CPU =     321.1916 (sec) -------------
TotEng   =        48.0510 KinEng   =       122.3951 Temp     =       281.2398 
PotEng   =       -74.3440 E_bond   =        16.2450 E_angle  =        30.3063 
E_dihed  =        59.4019 E_impro  =         0.0000 E_vdwl   =       -49.4561 
E_coul   =      -130.8411 E_long   =         0.0000 Press    =         0.0130
------------ Step        2200000 ----- CPU =     336.4485 (sec) -------------
TotEng   =        51.8181 KinEng   =       126.3435 Temp     =       290.3126 
PotEng   =       -74.5254 E_bond   =        14.5128 E_angle  =        34.3006 
E_dihed  =        58.0758 E_impro  =         0.0000 E_vdwl   =       -49.1975 
E_coul   =      -132.2170 E_long   =         0.0000 Press    =         0.0125
------------ Step        2300000 ----- CPU =     351.9259 (sec) -------------
TotEng   =        61.2852 KinEng   =       131.1288 Temp     =       301.3083 
PotEng   =       -69.8437 E_bond   =        18.4263 E_angle  =        31.4812 
E_dihed  =        58.7546 E_impro  =         0.0000 E_vdwl   =       -51.0314 
E_coul   =      -127.4744 E_long   =         0.0000 Press    =         0.0053
------------ Step        2400000 ----- CPU =     366.9728 (sec) -------------
TotEng   =        53.5065 KinEng   =       121.1996 Temp     =       278.4927 
PotEng   =       -67.6931 E_bond   =        16.6465 E_angle  =        34.2427 
E_dihed  =        61.8899 E_impro  =         0.0000 E_vdwl   =       -51.4174 
E_coul   =      -129.0547 E_long   =         0.0000 Press    =        -0.0143
------------ Step        2500000 ----- CPU =     382.1744 (sec) -------------
TotEng   =        54.9536 KinEng   =       126.7269 Temp     =       291.1935 
PotEng   =       -71.7733 E_bond   =        15.3140 E_angle  =        31.2528 
E_dihed  =        58.8971 E_impro  =         0.0000 E_vdwl   =       -48.7158 
E_coul   =      -128.5213 E_long   =         0.0000 Press    =         0.0018
------------ Step        2600000 ----- CPU =     396.7876 (sec) -------------
TotEng   =        53.1589 KinEng   =       127.7604 Temp     =       293.5682 
PotEng   =       -74.6015 E_bond   =        15.2991 E_angle  =        30.6692 
E_dihed  =        59.2232 E_impro  =         0.0000 E_vdwl   =       -51.3485 
E_coul   =      -128.4444 E_long   =         0.0000 Press    =         0.0160
------------ Step        2700000 ----- CPU =     411.3878 (sec) -------------
TotEng   =        53.3891 KinEng   =       128.3903 Temp     =       295.0156 
PotEng   =       -75.0012 E_bond   =        15.0690 E_angle  =        31.6878 
E_dihed  =        59.0784 E_impro  =         0.0000 E_vdwl   =       -48.9478 
E_coul   =      -131.8885 E_long   =         0.0000 Press    =         0.0043
------------ Step        2800000 ----- CPU =     425.7115 (sec) -------------
TotEng   =        55.8303 KinEng   =       125.2642 Temp     =       287.8325 
PotEng   =       -69.4339 E_bond   =        13.4728 E_angle  =        41.5447 
E_dihed  =        58.4483 E_impro  =         0.0000 E_vdwl   =       -50.6049 
E_coul   =      -132.2948 E_long   =         0.0000 Press    =        -0.0019
------------ Step        2900000 ----- CPU =     440.3575 (sec) -------------
TotEng   =        52.3349 KinEng   =       120.8046 Temp     =       277.5851 
PotEng   =       -68.4697 E_bond   =        17.0380 E_angle  =        32.7705 
E_dihed  =        60.4340 E_impro  =         0.0000 E_vdwl   =       -46.5661 
E_coul   =      -132.1461 E_long   =         0.0000 Press    =        -0.0165
------------ Step        3000000 ----- CPU =     455.0007 (sec) -------------
TotEng   =        83.8727 KinEng   =       148.8506 Temp     =       342.0294 
PotEng   =       -64.9779 E_bond   =        20.0395 E_angle  =        32.5634 
E_dihed  =        58.8740 E_impro  =         0.0000 E_vdwl   =       -47.4538 
E_coul   =      -129.0010 E_long   =         0.0000 Press    =        -0.0078
------------ Step        3100000 ----- CPU =     469.7989 (sec) -------------
TotEng   =        82.0735 KinEng   =       149.2170 Temp     =       342.8713 
PotEng   =       -67.1435 E_bond   =        16.7200 E_angle  =        36.0037 
E_dihed  =        56.2241 E_impro  =         0.0000 E_vdwl   =       -47.1899 
E_coul   =      -128.9013 E_long   =         0.0000 Press    =         0.0212
------------ Step        3200000 ----- CPU =     484.6349 (sec) -------------
TotEng   =        54.6026 KinEng   =       129.0437 Temp     =       296.5171 
PotEng   =       -74.4411 E_bond   =        13.8140 E_angle  =        31.9514 
E_dihed  =        60.3920 E_impro  =         0.0000 E_vdwl   =       -51.3438 
E_coul   =      -129.2548 E_long   =         0.0000 Press    =        -0.0186
------------ Step        3300000 ----- CPU =     499.1776 (sec) -------------
TotEng   =        55.4279 KinEng   =       132.1527 Temp     =       303.6608 
PotEng   =       -76.7248 E_bond   =        12.8966 E_angle  =        33.6075 
E_dihed  =        57.8628 E_impro  =         0.0000 E_vdwl   =       -51.0856 
E_coul   =      -130.0060 E_long   =         0.0000 Press    =        -0.0056
------------ Step        3400000 ----- CPU =     513.4776 (sec) -------------
TotEng   =        58.8079 KinEng   =       140.3994 Temp     =       322.6101 
PotEng   =       -81.5915 E_bond   =        14.3937 E_angle  =        26.7702 
E_dihed  =        56.8155 E_impro  =         0.0000 E_vdwl   =       -48.0574 
E_coul   =      -131.5136 E_long   =         0.0000 Press    =        -0.0067
------------ Step        3500000 ----- CPU =     528.5028 (sec) -------------
TotEng   =        52.6353 KinEng   =       130.7683 Temp     =       300.4798 
PotEng   =       -78.1330 E_bond   =        13.5843 E_angle  =        30.4887 
E_dihed  =        58.1120 E_impro  =         0.0000 E_vdwl   =       -47.1309 
E_coul   =      -133.1870 E_long   =         0.0000 Press    =        -0.0087
------------ Step        3600000 ----- CPU =     543.8936 (sec) -------------
TotEng   =        54.2463 KinEng   =       129.8644 Temp     =       298.4029 
PotEng   =       -75.6181 E_bond   =        12.9120 E_angle  =        33.9569 
E_dihed  =        56.3682 E_impro  =         0.0000 E_vdwl   =       -49.4325 
E_coul   =      -129.4228 E_long   =         0.0000 Press    =         0.0241
------------ Step        3700000 ----- CPU =     558.6851 (sec) -------------
TotEng   =        45.8217 KinEng   =       126.5396 Temp     =       290.7631 
PotEng   =       -80.7179 E_bond   =        13.4175 E_angle  =        30.0560 
E_dihed  =        57.2636 E_impro  =         0.0000 E_vdwl   =       -50.3422 
E_coul   =      -131.1128 E_long   =         0.0000 Press    =        -0.0091
------------ Step        3800000 ----- CPU =     573.5906 (sec) -------------
TotEng   =        56.8627 KinEng   =       135.9109 Temp     =       312.2964 
PotEng   =       -79.0482 E_bond   =        12.3320 E_angle  =        30.8525 
E_dihed  =        57.8748 E_impro  =         0.0000 E_vdwl   =       -47.4486 
E_coul   =      -132.6590 E_long   =         0.0000 Press    =         0.0074
------------ Step        3900000 ----- CPU =     588.2506 (sec) -------------
TotEng   =        56.6922 KinEng   =       134.9107 Temp     =       309.9984 
PotEng   =       -78.2185 E_bond   =        14.7530 E_angle  =        29.8048 
E_dihed  =        58.7407 E_impro  =         0.0000 E_vdwl   =       -51.6036 
E_coul   =      -129.9134 E_long   =         0.0000 Press    =        -0.0101
------------ Step        4000000 ----- CPU =     602.7571 (sec) -------------
TotEng   =        53.7897 KinEng   =       130.3402 Temp     =       299.4962 
PotEng   =       -76.5505 E_bond   =        15.3422 E_angle  =        30.4590 
E_dihed  =        58.7885 E_impro  =         0.0000 E_vdwl   =       -51.1718 
E_coul   =      -129.9683 E_long   =         0.0000 Press    =        -0.0136
------------ Step        4100000 ----- CPU =     617.4018 (sec) -------------
TotEng   =        54.9044 KinEng   =       133.1866 Temp     =       306.0366 
PotEng   =       -78.2822 E_bond   =        13.4997 E_angle  =        32.9076 
E_dihed  =        54.9266 E_impro  =         0.0000 E_vdwl   =       -48.1706 
E_coul   =      -131.4455 E_long   =         0.0000 Press    =        -0.0087
------------ Step        4200000 ----- CPU =      632.148 (sec) -------------
TotEng   =        43.0673 KinEng   =       128.9504 Temp     =       296.3027 
PotEng   =       -85.8831 E_bond   =        11.9334 E_angle  =        27.1187 
E_dihed  =        57.9532 E_impro  =         0.0000 E_vdwl   =       -52.3748 
E_coul   =      -130.5136 E_long   =         0.0000 Press    =        -0.0242
------------ Step        4300000 ----- CPU =     646.5198 (sec) -------------
TotEng   =        42.4248 KinEng   =       127.8862 Temp     =       293.8573 
PotEng   =       -85.4614 E_bond   =         8.9353 E_angle  =        30.1801 
E_dihed  =        55.5556 E_impro  =         0.0000 E_vdwl   =       -50.5312 
E_coul   =      -129.6011 E_long   =         0.0000 Press    =         0.0106
------------ Step        4400000 ----- CPU =     660.8779 (sec) -------------
TotEng   =        66.0899 KinEng   =       143.2047 Temp     =       329.0562 
PotEng   =       -77.1148 E_bond   =        12.7836 E_angle  =        34.3795 
E_dihed  =        57.7162 E_impro  =         0.0000 E_vdwl   =       -51.3474 
E_coul   =      -130.6467 E_long   =         0.0000 Press    =        -0.0064
------------ Step        4500000 ----- CPU =     675.8598 (sec) -------------
TotEng   =        61.5991 KinEng   =       137.1415 Temp     =       315.1242 
PotEng   =       -75.5424 E_bond   =        17.5454 E_angle  =        29.6514 
E_dihed  =        56.3481 E_impro  =         0.0000 E_vdwl   =       -50.2476 
E_coul   =      -128.8397 E_long   =         0.0000 Press    =        -0.0082
------------ Step        4600000 ----- CPU =     691.0677 (sec) -------------
TotEng   =        55.3474 KinEng   =       127.6966 Temp     =       293.4216 
PotEng   =       -72.3491 E_bond   =        18.0676 E_angle  =        31.9352 
E_dihed  =        57.5203 E_impro  =         0.0000 E_vdwl   =       -51.3466 
E_coul   =      -128.5256 E_long   =         0.0000 Press    =         0.0058
------------ Step        4700000 ----- CPU =     705.9467 (sec) -------------
TotEng   =        50.5631 KinEng   =       125.8427 Temp     =       289.1617 
PotEng   =       -75.2795 E_bond   =        18.2057 E_angle  =        26.7796 
E_dihed  =        58.7621 E_impro  =         0.0000 E_vdwl   =       -49.1433 
E_coul   =      -129.8836 E_long   =         0.0000 Press    =        -0.0029
------------ Step        4800000 ----- CPU =     720.9371 (sec) -------------
TotEng   =        55.5867 KinEng   =       129.2498 Temp     =       296.9905 
PotEng   =       -73.6630 E_bond   =        19.9577 E_angle  =        27.9227 
E_dihed  =        57.4930 E_impro  =         0.0000 E_vdwl   =       -50.1031 
E_coul   =      -128.9333 E_long   =         0.0000 Press    =        -0.0325
------------ Step        4900000 ----- CPU =     735.6719 (sec) -------------
TotEng   =        44.2033 KinEng   =       125.8603 Temp     =       289.2021 
PotEng   =       -81.6570 E_bond   =        12.2536 E_angle  =        29.4642 
E_dihed  =        57.3313 E_impro  =         0.0000 E_vdwl   =       -51.7493 
E_coul   =      -128.9568 E_long   =         0.0000 Press    =        -0.0107
------------ Step        5000000 ----- CPU =     750.8859 (sec) -------------
TotEng   =        45.2311 KinEng   =       126.6329 Temp     =       290.9775 
PotEng   =       -81.4018 E_bond   =        14.1700 E_angle  =        27.3567 
E_dihed  =        58.9015 E_impro  =         0.0000 E_vdwl   =       -49.4287 
E_coul   =      -132.4014 E_long   =         0.0000 Press    =        -0.0148
------------ Step        5100000 ----- CPU =     765.6751 (sec) -------------
TotEng   =        56.5421 KinEng   =       134.1109 Temp     =       308.1604 
PotEng   =       -77.5688 E_bond   =        13.1923 E_angle  =        33.9403 
E_dihed  =        57.3216 E_impro  =         0.0000 E_vdwl   =       -49.9673 
E_coul   =      -132.0557 E_long   =         0.0000 Press    =         0.0300
------------ Step        5200000 ----- CPU =     780.4189 (sec) -------------
TotEng   =        53.3736 KinEng   =       126.6969 Temp     =       291.1246 
PotEng   =       -73.3233 E_bond   =        15.4020 E_angle  =        35.7810 
E_dihed  =        56.4467 E_impro  =         0.0000 E_vdwl   =       -50.9032 
E_coul   =      -130.0498 E_long   =         0.0000 Press    =        -0.0014
------------ Step        5300000 ----- CPU =     795.0689 (sec) -------------
TotEng   =        56.0387 KinEng   =       131.5986 Temp     =       302.3877 
PotEng   =       -75.5599 E_bond   =        17.5326 E_angle  =        28.9069 
E_dihed  =        56.7221 E_impro  =         0.0000 E_vdwl   =       -48.6281 
E_coul   =      -130.0934 E_long   =         0.0000 Press    =        -0.0032
------------ Step        5400000 ----- CPU =     809.6247 (sec) -------------
TotEng   =        63.6192 KinEng   =       146.5330 Temp     =       336.7040 
PotEng   =       -82.9138 E_bond   =        14.6031 E_angle  =        25.7254 
E_dihed  =        57.0997 E_impro  =         0.0000 E_vdwl   =       -49.7999 
E_coul   =      -130.5422 E_long   =         0.0000 Press    =        -0.0001
------------ Step        5500000 ----- CPU =     824.2414 (sec) -------------
TotEng   =        57.2398 KinEng   =       122.0811 Temp     =       280.5184 
PotEng   =       -64.8414 E_bond   =        22.9765 E_angle  =        30.9390 
E_dihed  =        61.2026 E_impro  =         0.0000 E_vdwl   =       -50.3313 
E_coul   =      -129.6282 E_long   =         0.0000 Press    =         0.0065
------------ Step        5600000 ----- CPU =     839.4063 (sec) -------------
TotEng   =        68.3866 KinEng   =       140.9095 Temp     =       323.7824 
PotEng   =       -72.5230 E_bond   =        14.5698 E_angle  =        35.0438 
E_dihed  =        57.9561 E_impro  =         0.0000 E_vdwl   =       -49.5120 
E_coul   =      -130.5807 E_long   =         0.0000 Press    =        -0.0110
------------ Step        5700000 ----- CPU =     854.3312 (sec) -------------
TotEng   =        62.2741 KinEng   =       141.0968 Temp     =       324.2127 
PotEng   =       -78.8227 E_bond   =        15.6428 E_angle  =        27.3357 
E_dihed  =        56.2651 E_impro  =         0.0000 E_vdwl   =       -47.9708 
E_coul   =      -130.0955 E_long   =         0.0000 Press    =        -0.0000
------------ Step        5800000 ----- CPU =     868.9334 (sec) -------------
TotEng   =        52.9904 KinEng   =       131.6863 Temp     =       302.5892 
PotEng   =       -78.6959 E_bond   =        17.3406 E_angle  =        27.5864 
E_dihed  =        57.9217 E_impro  =         0.0000 E_vdwl   =       -48.9978 
E_coul   =      -132.5468 E_long   =         0.0000 Press    =         0.0284
------------ Step        5900000 ----- CPU =     884.0806 (sec) -------------
TotEng   =        53.5996 KinEng   =       125.9780 Temp     =       289.4727 
PotEng   =       -72.3784 E_bond   =        23.8583 E_angle  =        28.7073 
E_dihed  =        56.5033 E_impro  =         0.0000 E_vdwl   =       -49.2790 
E_coul   =      -132.1683 E_long   =         0.0000 Press    =        -0.0065
------------ Step        6000000 ----- CPU =     898.5956 (sec) -------------
TotEng   =        39.9255 KinEng   =       119.4839 Temp     =       274.5506 
PotEng   =       -79.5585 E_bond   =        13.1828 E_angle  =        31.7682 
E_dihed  =        56.9627 E_impro  =         0.0000 E_vdwl   =       -50.0221 
E_coul   =      -131.4500 E_long   =         0.0000 Press    =        -0.0189
------------ Step        6100000 ----- CPU =     913.1388 (sec) -------------
TotEng   =        45.3283 KinEng   =       126.1813 Temp     =       289.9398 
PotEng   =       -80.8529 E_bond   =        16.7083 E_angle  =        27.6018 
E_dihed  =        56.3698 E_impro  =         0.0000 E_vdwl   =       -50.0971 
E_coul   =      -131.4357 E_long   =         0.0000 Press    =        -0.0231
------------ Step        6200000 ----- CPU =     927.7439 (sec) -------------
TotEng   =        49.6404 KinEng   =       125.2703 Temp     =       287.8465 
PotEng   =       -75.6299 E_bond   =        13.8407 E_angle  =        34.0939 
E_dihed  =        58.6278 E_impro  =         0.0000 E_vdwl   =       -51.3155 
E_coul   =      -130.8768 E_long   =         0.0000 Press    =        -0.0079
------------ Step        6300000 ----- CPU =     942.6285 (sec) -------------
TotEng   =        52.5595 KinEng   =       128.4943 Temp     =       295.2547 
PotEng   =       -75.9348 E_bond   =        15.5151 E_angle  =        31.1083 
E_dihed  =        56.5939 E_impro  =         0.0000 E_vdwl   =       -47.8383 
E_coul   =      -131.3140 E_long   =         0.0000 Press    =         0.0194
------------ Step        6400000 ----- CPU =     957.3424 (sec) -------------
TotEng   =        46.2582 KinEng   =       129.5455 Temp     =       297.6701 
PotEng   =       -83.2873 E_bond   =        13.5460 E_angle  =        26.6366 
E_dihed  =        56.4242 E_impro  =         0.0000 E_vdwl   =       -49.5756 
E_coul   =      -130.3184 E_long   =         0.0000 Press    =         0.0066
------------ Step        6500000 ----- CPU =      971.926 (sec) -------------
TotEng   =        57.2223 KinEng   =       130.7768 Temp     =       300.4994 
PotEng   =       -73.5545 E_bond   =        15.7517 E_angle  =        35.3840 
E_dihed  =        56.9104 E_impro  =         0.0000 E_vdwl   =       -49.4817 
E_coul   =      -132.1189 E_long   =         0.0000 Press    =        -0.0129
------------ Step        6600000 ----- CPU =     986.3612 (sec) -------------
TotEng   =        54.4232 KinEng   =       128.9053 Temp     =       296.1991 
PotEng   =       -74.4822 E_bond   =        16.5550 E_angle  =        32.9656 
E_dihed  =        57.2289 E_impro  =         0.0000 E_vdwl   =       -50.1186 
E_coul   =      -131.1131 E_long   =         0.0000 Press    =        -0.0093
------------ Step        6700000 ----- CPU =     1001.078 (sec) -------------
TotEng   =        46.1195 KinEng   =       129.2246 Temp     =       296.9328 
PotEng   =       -83.1052 E_bond   =        13.3155 E_angle  =        30.0321 
E_dihed  =        56.6673 E_impro  =         0.0000 E_vdwl   =       -51.7541 
E_coul   =      -131.3659 E_long   =         0.0000 Press    =         0.0074
------------ Step        6800000 ----- CPU =     1015.685 (sec) -------------
TotEng   =        51.8562 KinEng   =       132.8697 Temp     =       305.3083 
PotEng   =       -81.0134 E_bond   =        12.9656 E_angle  =        28.5298 
E_dihed  =        58.4522 E_impro  =         0.0000 E_vdwl   =       -48.4868 
E_coul   =      -132.4742 E_long   =         0.0000 Press    =        -0.0051
------------ Step        6900000 ----- CPU =     1030.305 (sec) -------------
TotEng   =        52.5146 KinEng   =       133.4799 Temp     =       306.7106 
PotEng   =       -80.9653 E_bond   =        12.4233 E_angle  =        30.0183 
E_dihed  =        57.4968 E_impro  =         0.0000 E_vdwl   =       -51.1680 
E_coul   =      -129.7356 E_long   =         0.0000 Press    =         0.0218
------------ Step        7000000 ----- CPU =     1045.014 (sec) -------------
TotEng   =        59.3296 KinEng   =       132.4889 Temp     =       304.4335 
PotEng   =       -73.1593 E_bond   =         9.5804 E_angle  =        38.3304 
E_dihed  =        59.2629 E_impro  =         0.0000 E_vdwl   =       -49.2589 
E_coul   =      -131.0741 E_long   =         0.0000 Press    =         0.0198
------------ Step        7100000 ----- CPU =     1060.209 (sec) -------------
TotEng   =        60.7281 KinEng   =       140.9257 Temp     =       323.8196 
PotEng   =       -80.1977 E_bond   =        11.0049 E_angle  =        33.1103 
E_dihed  =        56.4934 E_impro  =         0.0000 E_vdwl   =       -50.8722 
E_coul   =      -129.9340 E_long   =         0.0000 Press    =         0.0144
------------ Step        7200000 ----- CPU =     1075.316 (sec) -------------
TotEng   =        38.7843 KinEng   =       122.7586 Temp     =       282.0751 
PotEng   =       -83.9743 E_bond   =        15.3926 E_angle  =        27.0451 
E_dihed  =        56.7187 E_impro  =         0.0000 E_vdwl   =       -49.6450 
E_coul   =      -133.4856 E_long   =         0.0000 Press    =        -0.0140
------------ Step        7300000 ----- CPU =     1090.042 (sec) -------------
TotEng   =        64.2128 KinEng   =       146.7851 Temp     =       337.2833 
PotEng   =       -82.5723 E_bond   =        14.2806 E_angle  =        28.2907 
E_dihed  =        57.1656 E_impro  =         0.0000 E_vdwl   =       -49.0112 
E_coul   =      -133.2980 E_long   =         0.0000 Press    =        -0.0096
------------ Step        7400000 ----- CPU =     1104.373 (sec) -------------
TotEng   =        50.6476 KinEng   =       128.7651 Temp     =       295.8769 
PotEng   =       -78.1175 E_bond   =        19.3891 E_angle  =        26.9972 
E_dihed  =        57.2598 E_impro  =         0.0000 E_vdwl   =       -50.2546 
E_coul   =      -131.5090 E_long   =         0.0000 Press    =        -0.0132
------------ Step        7500000 ----- CPU =      1119.27 (sec) -------------
TotEng   =        48.4681 KinEng   =       127.0194 Temp     =       291.8656 
PotEng   =       -78.5513 E_bond   =        13.6734 E_angle  =        28.7266 
E_dihed  =        61.1334 E_impro  =         0.0000 E_vdwl   =       -52.2551 
E_coul   =      -129.8295 E_long   =         0.0000 Press    =         0.0022
------------ Step        7600000 ----- CPU =      1134.06 (sec) -------------
TotEng   =        69.9426 KinEng   =       148.3684 Temp     =       340.9213 
PotEng   =       -78.4257 E_bond   =        15.3584 E_angle  =        30.3736 
E_dihed  =        57.2431 E_impro  =         0.0000 E_vdwl   =       -50.2554 
E_coul   =      -131.1456 E_long   =         0.0000 Press    =         0.0087
------------ Step        7700000 ----- CPU =     1148.674 (sec) -------------
TotEng   =        57.0008 KinEng   =       132.7352 Temp     =       304.9993 
PotEng   =       -75.7343 E_bond   =        15.4131 E_angle  =        34.0785 
E_dihed  =        56.0627 E_impro  =         0.0000 E_vdwl   =       -49.8192 
E_coul   =      -131.4695 E_long   =         0.0000 Press    =         0.0126
------------ Step        7800000 ----- CPU =     1163.463 (sec) -------------
TotEng   =        45.4141 KinEng   =       128.8255 Temp     =       296.0155 
PotEng   =       -83.4113 E_bond   =        12.5027 E_angle  =        28.8272 
E_dihed  =        56.5422 E_impro  =         0.0000 E_vdwl   =       -51.4190 
E_coul   =      -129.8645 E_long   =         0.0000 Press    =        -0.0069
------------ Step        7900000 ----- CPU =     1177.921 (sec) -------------
TotEng   =        76.1668 KinEng   =       142.0970 Temp     =       326.5111 
PotEng   =       -65.9303 E_bond   =        16.6706 E_angle  =        41.2548 
E_dihed  =        56.4008 E_impro  =         0.0000 E_vdwl   =       -50.2285 
E_coul   =      -130.0279 E_long   =         0.0000 Press    =        -0.0256
------------ Step        8000000 ----- CPU =      1192.55 (sec) -------------
TotEng   =        69.1572 KinEng   =       145.0403 Temp     =       333.2741 
PotEng   =       -75.8831 E_bond   =        15.9492 E_angle  =        31.1212 
E_dihed  =        57.3576 E_impro  =         0.0000 E_vdwl   =       -49.0872 
E_coul   =      -131.2238 E_long   =         0.0000 Press    =        -0.0043
------------ Step        8100000 ----- CPU =     1207.103 (sec) -------------
TotEng   =        55.4755 KinEng   =       128.8236 Temp     =       296.0112 
PotEng   =       -73.3481 E_bond   =        14.5646 E_angle  =        36.0385 
E_dihed  =        54.4700 E_impro  =         0.0000 E_vdwl   =       -47.4122 
E_coul   =      -131.0089 E_long   =         0.0000 Press    =        -0.0016
------------ Step        8200000 ----- CPU =     1221.713 (sec) -------------
TotEng   =        47.2463 KinEng   =       124.7893 Temp     =       286.7413 
PotEng   =       -77.5430 E_bond   =        15.0690 E_angle  =        30.7176 
E_dihed  =        58.6521 E_impro  =         0.0000 E_vdwl   =       -50.5370 
E_coul   =      -131.4447 E_long   =         0.0000 Press    =        -0.0171
------------ Step        8300000 ----- CPU =     1236.189 (sec) -------------
TotEng   =        33.7359 KinEng   =       117.1761 Temp     =       269.2477 
PotEng   =       -83.4402 E_bond   =        13.0848 E_angle  =        27.0171 
E_dihed  =        56.7400 E_impro  =         0.0000 E_vdwl   =       -48.2422 
E_coul   =      -132.0399 E_long   =         0.0000 Press    =         0.0013
------------ Step        8400000 ----- CPU =     1250.581 (sec) -------------
TotEng   =        38.2637 KinEng   =       123.3963 Temp     =       283.5404 
PotEng   =       -85.1326 E_bond   =        10.5977 E_angle  =        29.0327 
E_dihed  =        57.0385 E_impro  =         0.0000 E_vdwl   =       -51.3972 
E_coul   =      -130.4043 E_long   =         0.0000 Press    =        -0.0049
------------ Step        8500000 ----- CPU =     1265.194 (sec) -------------
TotEng   =        53.9355 KinEng   =       130.0757 Temp     =       298.8884 
PotEng   =       -76.1403 E_bond   =        16.3080 E_angle  =        31.1641 
E_dihed  =        57.2954 E_impro  =         0.0000 E_vdwl   =       -48.1658 
E_coul   =      -132.7419 E_long   =         0.0000 Press    =        -0.0081
------------ Step        8600000 ----- CPU =     1279.604 (sec) -------------
TotEng   =        36.3588 KinEng   =       118.0394 Temp     =       271.2312 
PotEng   =       -81.6806 E_bond   =        14.8073 E_angle  =        29.5572 
E_dihed  =        53.1253 E_impro  =         0.0000 E_vdwl   =       -49.7181 
E_coul   =      -129.4523 E_long   =         0.0000 Press    =        -0.0055
------------ Step        8700000 ----- CPU =      1293.98 (sec) -------------
TotEng   =        50.5448 KinEng   =       129.1009 Temp     =       296.6485 
PotEng   =       -78.5560 E_bond   =        16.3113 E_angle  =        28.8299 
E_dihed  =        57.4959 E_impro  =         0.0000 E_vdwl   =       -49.7407 
E_coul   =      -131.4525 E_long   =         0.0000 Press    =        -0.0124
------------ Step        8800000 ----- CPU =     1308.355 (sec) -------------
TotEng   =        43.3900 KinEng   =       119.9884 Temp     =       275.7097 
PotEng   =       -76.5984 E_bond   =        14.9323 E_angle  =        32.0929 
E_dihed  =        58.5605 E_impro  =         0.0000 E_vdwl   =       -50.0051 
E_coul   =      -132.1790 E_long   =         0.0000 Press    =        -0.0152
------------ Step        8900000 ----- CPU =     1322.838 (sec) -------------
TotEng   =        48.8640 KinEng   =       128.0213 Temp     =       294.1677 
PotEng   =       -79.1572 E_bond   =        13.6761 E_angle  =        31.4904 
E_dihed  =        57.6758 E_impro  =         0.0000 E_vdwl   =       -52.2156 
E_coul   =      -129.7840 E_long   =         0.0000 Press    =         0.0168
------------ Step        9000000 ----- CPU =     1337.371 (sec) -------------
TotEng   =        59.8644 KinEng   =       137.9882 Temp     =       317.0696 
PotEng   =       -78.1237 E_bond   =        13.3652 E_angle  =        29.7342 
E_dihed  =        58.4392 E_impro  =         0.0000 E_vdwl   =       -48.1000 
E_coul   =      -131.5623 E_long   =         0.0000 Press    =        -0.0134
------------ Step        9100000 ----- CPU =     1351.932 (sec) -------------
TotEng   =        69.9204 KinEng   =       147.1757 Temp     =       338.1808 
PotEng   =       -77.2553 E_bond   =        16.9080 E_angle  =        28.5719 
E_dihed  =        59.2553 E_impro  =         0.0000 E_vdwl   =       -50.7719 
E_coul   =      -131.2185 E_long   =         0.0000 Press    =         0.0333
------------ Step        9200000 ----- CPU =     1366.455 (sec) -------------
TotEng   =        61.1192 KinEng   =       136.1110 Temp     =       312.7564 
PotEng   =       -74.9919 E_bond   =        19.7287 E_angle  =        28.8889 
E_dihed  =        58.0069 E_impro  =         0.0000 E_vdwl   =       -50.3353 
E_coul   =      -131.2810 E_long   =         0.0000 Press    =        -0.0126
------------ Step        9300000 ----- CPU =     1380.888 (sec) -------------
TotEng   =        44.2249 KinEng   =       116.2641 Temp     =       267.1520 
PotEng   =       -72.0392 E_bond   =        21.3608 E_angle  =        31.7432 
E_dihed  =        57.1844 E_impro  =         0.0000 E_vdwl   =       -51.0145 
E_coul   =      -131.3132 E_long   =         0.0000 Press    =        -0.0326
------------ Step        9400000 ----- CPU =     1395.354 (sec) -------------
TotEng   =        28.7881 KinEng   =       115.7444 Temp     =       265.9579 
PotEng   =       -86.9563 E_bond   =        10.6278 E_angle  =        25.6177 
E_dihed  =        57.8503 E_impro  =         0.0000 E_vdwl   =       -49.7167 
E_coul   =      -131.3353 E_long   =         0.0000 Press    =         0.0180
------------ Step        9500000 ----- CPU =     1409.748 (sec) -------------
TotEng   =        51.2773 KinEng   =       122.1236 Temp     =       280.6159 
PotEng   =       -70.8463 E_bond   =        22.5201 E_angle  =        30.5633 
E_dihed  =        55.8803 E_impro  =         0.0000 E_vdwl   =       -48.1235 
E_coul   =      -131.6865 E_long   =         0.0000 Press    =        -0.0244
------------ Step        9600000 ----- CPU =     1424.208 (sec) -------------
TotEng   =        59.8028 KinEng   =       133.5032 Temp     =       306.7641 
PotEng   =       -73.7004 E_bond   =        20.0933 E_angle  =        30.7456 
E_dihed  =        58.6409 E_impro  =         0.0000 E_vdwl   =       -51.3040 
E_coul   =      -131.8762 E_long   =         0.0000 Press    =        -0.0003
------------ Step        9700000 ----- CPU =     1438.504 (sec) -------------
TotEng   =        60.3846 KinEng   =       142.0586 Temp     =       326.4227 
PotEng   =       -81.6740 E_bond   =        17.2089 E_angle  =        25.4175 
E_dihed  =        56.1598 E_impro  =         0.0000 E_vdwl   =       -48.9063 
E_coul   =      -131.5539 E_long   =         0.0000 Press    =         0.0224
------------ Step        9800000 ----- CPU =     1452.907 (sec) -------------
TotEng   =        60.2324 KinEng   =       137.3127 Temp     =       315.5175 
PotEng   =       -77.0802 E_bond   =        14.0454 E_angle  =        31.6712 
E_dihed  =        58.8735 E_impro  =         0.0000 E_vdwl   =       -50.1962 
E_coul   =      -131.4741 E_long   =         0.0000 Press    =         0.0196
------------ Step        9900000 ----- CPU =     1467.525 (sec) -------------
TotEng   =        39.8492 KinEng   =       122.9679 Temp     =       282.5561 
PotEng   =       -83.1187 E_bond   =        11.1582 E_angle  =        29.7324 
E_dihed  =        56.0044 E_impro  =         0.0000 E_vdwl   =       -49.4950 
E_coul   =      -130.5187 E_long   =         0.0000 Press    =         0.0033
------------ Step       10000000 ----- CPU =     1481.921 (sec) -------------
TotEng   =        74.5786 KinEng   =       149.3703 Temp     =       343.2236 
PotEng   =       -74.7917 E_bond   =        16.2396 E_angle  =        32.9218 
E_dihed  =        56.5012 E_impro  =         0.0000 E_vdwl   =       -50.7682 
E_coul   =      -129.6861 E_long   =         0.0000 Press    =        -0.0023
------------ Step       10100000 ----- CPU =     1496.224 (sec) -------------
TotEng   =        56.6168 KinEng   =       144.0199 Temp     =       330.9294 
PotEng   =       -87.4031 E_bond   =         8.7284 E_angle  =        28.3271 
E_dihed  =        57.2369 E_impro  =         0.0000 E_vdwl   =       -50.8634 
E_coul   =      -130.8321 E_long   =         0.0000 Press    =         0.0285
------------ Step       10200000 ----- CPU =     1510.665 (sec) -------------
TotEng   =        64.4097 KinEng   =       137.8655 Temp     =       316.7878 
PotEng   =       -73.4558 E_bond   =        17.9913 E_angle  =        32.8964 
E_dihed  =        57.8166 E_impro  =         0.0000 E_vdwl   =       -51.3379 
E_coul   =      -130.8223 E_long   =         0.0000 Press    =         0.0144
------------ Step       10300000 ----- CPU =     1525.095 (sec) -------------
TotEng   =        25.4853 KinEng   =       109.5469 Temp     =       251.7173 
PotEng   =       -84.0616 E_bond   =        13.2997 E_angle  =        27.1396 
E_dihed  =        55.5740 E_impro  =         0.0000 E_vdwl   =       -49.1245 
E_coul   =      -130.9505 E_long   =         0.0000 Press    =         0.0144
------------ Step       10400000 ----- CPU =     1539.522 (sec) -------------
TotEng   =        37.7213 KinEng   =       116.8954 Temp     =       268.6027 
PotEng   =       -79.1742 E_bond   =        14.1687 E_angle  =        29.6873 
E_dihed  =        55.3917 E_impro  =         0.0000 E_vdwl   =       -48.4549 
E_coul   =      -129.9670 E_long   =         0.0000 Press    =         0.0090
------------ Step       10500000 ----- CPU =     1553.953 (sec) -------------
TotEng   =        47.5458 KinEng   =       128.4951 Temp     =       295.2565 
PotEng   =       -80.9494 E_bond   =        15.2523 E_angle  =        28.0256 
E_dihed  =        56.8729 E_impro  =         0.0000 E_vdwl   =       -49.2808 
E_coul   =      -131.8194 E_long   =         0.0000 Press    =         0.0128
------------ Step       10600000 ----- CPU =     1568.304 (sec) -------------
TotEng   =        55.1988 KinEng   =       132.1240 Temp     =       303.5950 
PotEng   =       -76.9252 E_bond   =        14.7626 E_angle  =        34.9164 
E_dihed  =        55.4568 E_impro  =         0.0000 E_vdwl   =       -51.4007 
E_coul   =      -130.6603 E_long   =         0.0000 Press    =        -0.0090
------------ Step       10700000 ----- CPU =     1582.694 (sec) -------------
TotEng   =        67.5143 KinEng   =       150.1897 Temp     =       345.1064 
PotEng   =       -82.6754 E_bond   =         9.9989 E_angle  =        29.7514 
E_dihed  =        57.3537 E_impro  =         0.0000 E_vdwl   =       -48.8954 
E_coul   =      -130.8839 E_long   =         0.0000 Press    =         0.0162
------------ Step       10800000 ----- CPU =     1597.147 (sec) -------------
TotEng   =        74.3596 KinEng   =       142.7435 Temp     =       327.9964 
PotEng   =       -68.3839 E_bond   =        20.8934 E_angle  =        33.1658 
E_dihed  =        56.2281 E_impro  =         0.0000 E_vdwl   =       -49.0386 
E_coul   =      -129.6325 E_long   =         0.0000 Press    =         0.0088
------------ Step       10900000 ----- CPU =     1611.608 (sec) -------------
TotEng   =        51.9919 KinEng   =       130.2583 Temp     =       299.3080 
PotEng   =       -78.2664 E_bond   =        15.3855 E_angle  =        30.7277 
E_dihed  =        55.5666 E_impro  =         0.0000 E_vdwl   =       -48.3884 
E_coul   =      -131.5579 E_long   =         0.0000 Press    =         0.0073
------------ Step       11000000 ----- CPU =     1625.975 (sec) -------------
TotEng   =        56.4685 KinEng   =       137.4755 Temp     =       315.8916 
PotEng   =       -81.0070 E_bond   =        13.9306 E_angle  =        27.8802 
E_dihed  =        57.5377 E_impro  =         0.0000 E_vdwl   =       -49.6960 
E_coul   =      -130.6594 E_long   =         0.0000 Press    =         0.0143
------------ Step       11100000 ----- CPU =     1640.342 (sec) -------------
TotEng   =        52.1878 KinEng   =       135.0947 Temp     =       310.4211 
PotEng   =       -82.9070 E_bond   =        12.8435 E_angle  =        27.5968 
E_dihed  =        58.4660 E_impro  =         0.0000 E_vdwl   =       -50.7274 
E_coul   =      -131.0859 E_long   =         0.0000 Press    =         0.0012
------------ Step       11200000 ----- CPU =      1654.65 (sec) -------------
TotEng   =        55.7540 KinEng   =       135.4351 Temp     =       311.2033 
PotEng   =       -79.6811 E_bond   =        11.1692 E_angle  =        35.6649 
E_dihed  =        57.4130 E_impro  =         0.0000 E_vdwl   =       -51.5338 
E_coul   =      -132.3944 E_long   =         0.0000 Press    =         0.0118
------------ Step       11300000 ----- CPU =       1668.9 (sec) -------------
TotEng   =        46.8513 KinEng   =       130.2630 Temp     =       299.3187 
PotEng   =       -83.4117 E_bond   =        12.9878 E_angle  =        30.6439 
E_dihed  =        53.2338 E_impro  =         0.0000 E_vdwl   =       -48.1089 
E_coul   =      -132.1683 E_long   =         0.0000 Press    =         0.0239
------------ Step       11400000 ----- CPU =     1683.328 (sec) -------------
TotEng   =        44.6804 KinEng   =       115.0031 Temp     =       264.2544 
PotEng   =       -70.3227 E_bond   =        21.1406 E_angle  =        34.2595 
E_dihed  =        56.9153 E_impro  =         0.0000 E_vdwl   =       -50.6866 
E_coul   =      -131.9515 E_long   =         0.0000 Press    =         0.0028
------------ Step       11500000 ----- CPU =     1697.738 (sec) -------------
TotEng   =        38.9564 KinEng   =       117.1777 Temp     =       269.2513 
PotEng   =       -78.2213 E_bond   =        17.3820 E_angle  =        28.9650 
E_dihed  =        57.6843 E_impro  =         0.0000 E_vdwl   =       -51.6130 
E_coul   =      -130.6396 E_long   =         0.0000 Press    =        -0.0000
------------ Step       11600000 ----- CPU =     1712.099 (sec) -------------
TotEng   =        46.5480 KinEng   =       122.6015 Temp     =       281.7142 
PotEng   =       -76.0535 E_bond   =        18.7483 E_angle  =        33.0142 
E_dihed  =        55.6174 E_impro  =         0.0000 E_vdwl   =       -51.0912 
E_coul   =      -132.3422 E_long   =         0.0000 Press    =         0.0119
------------ Step       11700000 ----- CPU =     1726.405 (sec) -------------
TotEng   =        56.7454 KinEng   =       130.0870 Temp     =       298.9144 
PotEng   =       -73.3416 E_bond   =        16.1169 E_angle  =        31.7033 
E_dihed  =        58.1853 E_impro  =         0.0000 E_vdwl   =       -48.2802 
E_coul   =      -131.0670 E_long   =         0.0000 Press    =        -0.0059
------------ Step       11800000 ----- CPU =     1740.703 (sec) -------------
TotEng   =        43.5620 KinEng   =       126.6219 Temp     =       290.9522 
PotEng   =       -83.0599 E_bond   =        11.4881 E_angle  =        30.7141 
E_dihed  =        56.7705 E_impro  =         0.0000 E_vdwl   =       -49.0890 
E_coul   =      -132.9435 E_long   =         0.0000 Press    =         0.0166
------------ Step       11900000 ----- CPU =     1754.942 (sec) -------------
TotEng   =        49.5448 KinEng   =       136.2003 Temp     =       312.9614 
PotEng   =       -86.6555 E_bond   =         9.2707 E_angle  =        27.8884 
E_dihed  =        55.3132 E_impro  =         0.0000 E_vdwl   =       -49.3636 
E_coul   =      -129.7641 E_long   =         0.0000 Press    =        -0.0018
------------ Step       12000000 ----- CPU =       1769.1 (sec) -------------
TotEng   =        44.6150 KinEng   =       124.5817 Temp     =       286.2642 
PotEng   =       -79.9667 E_bond   =        18.5523 E_angle  =        25.1202 
E_dihed  =        58.0334 E_impro  =         0.0000 E_vdwl   =       -52.0899 
E_coul   =      -129.5827 E_long   =         0.0000 Press    =        -0.0305
------------ Step       12100000 ----- CPU =     1783.286 (sec) -------------
TotEng   =        26.0266 KinEng   =       108.4665 Temp     =       249.2348 
PotEng   =       -82.4399 E_bond   =        13.9087 E_angle  =        29.2068 
E_dihed  =        55.9725 E_impro  =         0.0000 E_vdwl   =       -50.4156 
E_coul   =      -131.1123 E_long   =         0.0000 Press    =        -0.0102
------------ Step       12200000 ----- CPU =     1797.446 (sec) -------------
TotEng   =        21.1356 KinEng   =       108.1157 Temp     =       248.4286 
PotEng   =       -86.9801 E_bond   =        11.8899 E_angle  =        27.5265 
E_dihed  =        55.1732 E_impro  =         0.0000 E_vdwl   =       -49.5375 
E_coul   =      -132.0323 E_long   =         0.0000 Press    =        -0.0160
------------ Step       12300000 ----- CPU =     1811.614 (sec) -------------
TotEng   =        40.5998 KinEng   =       129.0720 Temp     =       296.5821 
PotEng   =       -88.4722 E_bond   =        10.0353 E_angle  =        27.0071 
E_dihed  =        56.4120 E_impro  =         0.0000 E_vdwl   =       -48.5352 
E_coul   =      -133.3915 E_long   =         0.0000 Press    =         0.0041
------------ Step       12400000 ----- CPU =     1825.784 (sec) -------------
TotEng   =        47.5269 KinEng   =       135.6695 Temp     =       311.7417 
PotEng   =       -88.1425 E_bond   =         9.0557 E_angle  =        26.2618 
E_dihed  =        58.2254 E_impro  =         0.0000 E_vdwl   =       -50.9135 
E_coul   =      -130.7720 E_long   =         0.0000 Press    =         0.0020
------------ Step       12500000 ----- CPU =     1840.105 (sec) -------------
TotEng   =        39.7171 KinEng   =       123.1949 Temp     =       283.0776 
PotEng   =       -83.4777 E_bond   =        10.4327 E_angle  =        30.0593 
E_dihed  =        56.0268 E_impro  =         0.0000 E_vdwl   =       -49.2014 
E_coul   =      -130.7950 E_long   =         0.0000 Press    =         0.0176
------------ Step       12600000 ----- CPU =     1854.718 (sec) -------------
TotEng   =        38.6633 KinEng   =       121.0898 Temp     =       278.2405 
PotEng   =       -82.4265 E_bond   =        12.1183 E_angle  =        26.7218 
E_dihed  =        58.5237 E_impro  =         0.0000 E_vdwl   =       -49.8239 
E_coul   =      -129.9665 E_long   =         0.0000 Press    =         0.0094
------------ Step       12700000 ----- CPU =     1869.202 (sec) -------------
TotEng   =        45.2728 KinEng   =       127.5277 Temp     =       293.0335 
PotEng   =       -82.2549 E_bond   =        13.5314 E_angle  =        31.1013 
E_dihed  =        55.4952 E_impro  =         0.0000 E_vdwl   =       -51.6134 
E_coul   =      -130.7693 E_long   =         0.0000 Press    =        -0.0209
------------ Step       12800000 ----- CPU =     1883.512 (sec) -------------
TotEng   =        55.1804 KinEng   =       136.3148 Temp     =       313.2247 
PotEng   =       -81.1344 E_bond   =        13.5324 E_angle  =        30.3469 
E_dihed  =        55.8536 E_impro  =         0.0000 E_vdwl   =       -50.4607 
E_coul   =      -130.4067 E_long   =         0.0000 Press    =         0.0020
------------ Step       12900000 ----- CPU =     1897.762 (sec) -------------
TotEng   =        49.0903 KinEng   =       130.3221 Temp     =       299.4546 
PotEng   =       -81.2318 E_bond   =        13.1417 E_angle  =        30.6536 
E_dihed  =        57.0962 E_impro  =         0.0000 E_vdwl   =       -49.6073 
E_coul   =      -132.5160 E_long   =         0.0000 Press    =        -0.0086
------------ Step       13000000 ----- CPU =     1912.202 (sec) -------------
TotEng   =        52.1561 KinEng   =       133.8272 Temp     =       307.5086 
PotEng   =       -81.6711 E_bond   =        15.0895 E_angle  =        28.3044 
E_dihed  =        57.3540 E_impro  =         0.0000 E_vdwl   =       -49.8649 
E_coul   =      -132.5541 E_long   =         0.0000 Press    =         0.0080
------------ Step       13100000 ----- CPU =     1926.655 (sec) -------------
TotEng   =        43.8878 KinEng   =       121.7325 Temp     =       279.7174 
PotEng   =       -77.8447 E_bond   =        16.4271 E_angle  =        28.3273 
E_dihed  =        59.0721 E_impro  =         0.0000 E_vdwl   =       -50.8474 
E_coul   =      -130.8238 E_long   =         0.0000 Press    =        -0.0091
------------ Step       13200000 ----- CPU =     1941.045 (sec) -------------
TotEng   =        51.6374 KinEng   =       133.3972 Temp     =       306.5206 
PotEng   =       -81.7598 E_bond   =        12.7089 E_angle  =        29.5625 
E_dihed  =        57.0001 E_impro  =         0.0000 E_vdwl   =       -50.0805 
E_coul   =      -130.9508 E_long   =         0.0000 Press    =        -0.0062
------------ Step       13300000 ----- CPU =      1955.36 (sec) -------------
TotEng   =        52.1052 KinEng   =       120.5677 Temp     =       277.0409 
PotEng   =       -68.4625 E_bond   =        20.1011 E_angle  =        37.1701 
E_dihed  =        58.8129 E_impro  =         0.0000 E_vdwl   =       -50.8337 
E_coul   =      -133.7128 E_long   =         0.0000 Press    =         0.0025
------------ Step       13400000 ----- CPU =     1969.996 (sec) -------------
TotEng   =        64.2708 KinEng   =       141.2984 Temp     =       324.6760 
PotEng   =       -77.0277 E_bond   =        12.7109 E_angle  =        32.2805 
E_dihed  =        58.3688 E_impro  =         0.0000 E_vdwl   =       -49.9021 
E_coul   =      -130.4858 E_long   =         0.0000 Press    =         0.0006
------------ Step       13500000 ----- CPU =     1984.432 (sec) -------------
TotEng   =        55.9421 KinEng   =       138.3964 Temp     =       318.0076 
PotEng   =       -82.4543 E_bond   =        12.2624 E_angle  =        28.6680 
E_dihed  =        57.5582 E_impro  =         0.0000 E_vdwl   =       -49.1147 
E_coul   =      -131.8282 E_long   =         0.0000 Press    =         0.0001
------------ Step       13600000 ----- CPU =     1998.747 (sec) -------------
TotEng   =        53.1601 KinEng   =       132.0119 Temp     =       303.3374 
PotEng   =       -78.8518 E_bond   =        10.9782 E_angle  =        34.9076 
E_dihed  =        55.2333 E_impro  =         0.0000 E_vdwl   =       -49.8086 
E_coul   =      -130.1623 E_long   =         0.0000 Press    =         0.0210
------------ Step       13700000 ----- CPU =     2013.171 (sec) -------------
TotEng   =        42.9190 KinEng   =       129.0247 Temp     =       296.4734 
PotEng   =       -86.1057 E_bond   =        10.9600 E_angle  =        26.8668 
E_dihed  =        57.1662 E_impro  =         0.0000 E_vdwl   =       -49.4085 
E_coul   =      -131.6902 E_long   =         0.0000 Press    =         0.0180
------------ Step       13800000 ----- CPU =     2027.567 (sec) -------------
TotEng   =        60.6460 KinEng   =       128.2520 Temp     =       294.6979 
PotEng   =       -67.6060 E_bond   =        23.6538 E_angle  =        30.4690 
E_dihed  =        56.9521 E_impro  =         0.0000 E_vdwl   =       -48.6088 
E_coul   =      -130.0721 E_long   =         0.0000 Press    =        -0.0276
------------ Step       13900000 ----- CPU =     2041.959 (sec) -------------
TotEng   =        41.2966 KinEng   =       122.2831 Temp     =       280.9825 
PotEng   =       -80.9865 E_bond   =        14.5450 E_angle  =        29.3247 
E_dihed  =        57.8123 E_impro  =         0.0000 E_vdwl   =       -52.1074 
E_coul   =      -130.5612 E_long   =         0.0000 Press    =        -0.0200
------------ Step       14000000 ----- CPU =     2056.565 (sec) -------------
TotEng   =        54.5808 KinEng   =       129.7705 Temp     =       298.1870 
PotEng   =       -75.1896 E_bond   =        15.2723 E_angle  =        33.0245 
E_dihed  =        57.5508 E_impro  =         0.0000 E_vdwl   =       -49.4395 
E_coul   =      -131.5978 E_long   =         0.0000 Press    =         0.0381
------------ Step       14100000 ----- CPU =     2071.251 (sec) -------------
TotEng   =        74.1062 KinEng   =       146.1366 Temp     =       335.7932 
PotEng   =       -72.0304 E_bond   =        16.4566 E_angle  =        34.4223 
E_dihed  =        56.7290 E_impro  =         0.0000 E_vdwl   =       -48.6734 
E_coul   =      -130.9649 E_long   =         0.0000 Press    =        -0.0072
------------ Step       14200000 ----- CPU =     2085.789 (sec) -------------
TotEng   =        49.5930 KinEng   =       127.3302 Temp     =       292.5796 
PotEng   =       -77.7372 E_bond   =        15.0746 E_angle  =        32.1856 
E_dihed  =        57.6505 E_impro  =         0.0000 E_vdwl   =       -50.6292 
E_coul   =      -132.0188 E_long   =         0.0000 Press    =        -0.0133
------------ Step       14300000 ----- CPU =     2100.717 (sec) -------------
TotEng   =        36.1938 KinEng   =       120.8098 Temp     =       277.5970 
PotEng   =       -84.6160 E_bond   =        13.3518 E_angle  =        26.4463 
E_dihed  =        57.0121 E_impro  =         0.0000 E_vdwl   =       -49.7116 
E_coul   =      -131.7146 E_long   =         0.0000 Press    =        -0.0157
------------ Step       14400000 ----- CPU =      2115.68 (sec) -------------
TotEng   =        61.9585 KinEng   =       137.0615 Temp     =       314.9403 
PotEng   =       -75.1030 E_bond   =        14.8406 E_angle  =        30.7438 
E_dihed  =        58.7565 E_impro  =         0.0000 E_vdwl   =       -49.3123 
E_coul   =      -130.1316 E_long   =         0.0000 Press    =        -0.0238
------------ Step       14500000 ----- CPU =     2130.148 (sec) -------------
TotEng   =        62.9603 KinEng   =       138.0585 Temp     =       317.2312 
PotEng   =       -75.0982 E_bond   =        19.0699 E_angle  =        29.8732 
E_dihed  =        58.5312 E_impro  =         0.0000 E_vdwl   =       -52.5625 
E_coul   =      -130.0099 E_long   =         0.0000 Press    =         0.0256
------------ Step       14600000 ----- CPU =     2144.706 (sec) -------------
TotEng   =        41.1203 KinEng   =       128.6363 Temp     =       295.5809 
PotEng   =       -87.5160 E_bond   =         8.1332 E_angle  =        28.9569 
E_dihed  =        55.4915 E_impro  =         0.0000 E_vdwl   =       -48.3131 
E_coul   =      -131.7844 E_long   =         0.0000 Press    =         0.0165
------------ Step       14700000 ----- CPU =     2159.211 (sec) -------------
TotEng   =        52.8196 KinEng   =       127.1536 Temp     =       292.1740 
PotEng   =       -74.3340 E_bond   =        17.6855 E_angle  =        29.7643 
E_dihed  =        59.9425 E_impro  =         0.0000 E_vdwl   =       -50.5805 
E_coul   =      -131.1459 E_long   =         0.0000 Press    =        -0.0176
------------ Step       14800000 ----- CPU =     2173.525 (sec) -------------
TotEng   =        58.4390 KinEng   =       137.5360 Temp     =       316.0307 
PotEng   =       -79.0970 E_bond   =        17.6649 E_angle  =        27.2765 
E_dihed  =        58.1646 E_impro  =         0.0000 E_vdwl   =       -51.9599 
E_coul   =      -130.2431 E_long   =         0.0000 Press    =         0.0131
------------ Step       14900000 ----- CPU =     2187.953 (sec) -------------
TotEng   =        55.3666 KinEng   =       142.8305 Temp     =       328.1965 
PotEng   =       -87.4639 E_bond   =         9.3387 E_angle  =        28.8236 
E_dihed  =        57.0499 E_impro  =         0.0000 E_vdwl   =       -50.4961 
E_coul   =      -132.1800 E_long   =         0.0000 Press    =         0.0185
------------ Step       15000000 ----- CPU =     2202.453 (sec) -------------
TotEng   =        50.9805 KinEng   =       127.6757 Temp     =       293.3737 
PotEng   =       -76.6952 E_bond   =        15.5563 E_angle  =        32.1046 
E_dihed  =        58.0088 E_impro  =         0.0000 E_vdwl   =       -51.7538 
E_coul   =      -130.6111 E_long   =         0.0000 Press    =         0.0072
------------ Step       15100000 ----- CPU =     2216.868 (sec) -------------
TotEng   =        49.4942 KinEng   =       127.8719 Temp     =       293.8246 
PotEng   =       -78.3777 E_bond   =        13.9868 E_angle  =        35.6878 
E_dihed  =        55.2773 E_impro  =         0.0000 E_vdwl   =       -50.2948 
E_coul   =      -133.0349 E_long   =         0.0000 Press    =         0.0203
------------ Step       15200000 ----- CPU =     2231.453 (sec) -------------
TotEng   =        48.3792 KinEng   =       133.0862 Temp     =       305.8060 
PotEng   =       -84.7071 E_bond   =         9.9064 E_angle  =        26.7692 
E_dihed  =        58.8709 E_impro  =         0.0000 E_vdwl   =       -49.8118 
E_coul   =      -130.4418 E_long   =         0.0000 Press    =         0.0127
------------ Step       15300000 ----- CPU =      2246.12 (sec) -------------
TotEng   =        55.7931 KinEng   =       128.9163 Temp     =       296.2242 
PotEng   =       -73.1232 E_bond   =        15.1763 E_angle  =        31.8060 
E_dihed  =        59.3869 E_impro  =         0.0000 E_vdwl   =       -48.4567 
E_coul   =      -131.0357 E_long   =         0.0000 Press    =        -0.0096
------------ Step       15400000 ----- CPU =     2260.681 (sec) -------------
TotEng   =        57.5757 KinEng   =       134.6840 Temp     =       309.4772 
PotEng   =       -77.1082 E_bond   =        16.3956 E_angle  =        29.2503 
E_dihed  =        57.1988 E_impro  =         0.0000 E_vdwl   =       -50.1123 
E_coul   =      -129.8407 E_long   =         0.0000 Press    =        -0.0073
------------ Step       15500000 ----- CPU =     2275.185 (sec) -------------
TotEng   =        54.5057 KinEng   =       131.4908 Temp     =       302.1400 
PotEng   =       -76.9851 E_bond   =        13.5981 E_angle  =        32.8995 
E_dihed  =        57.6778 E_impro  =         0.0000 E_vdwl   =       -48.8242 
E_coul   =      -132.3363 E_long   =         0.0000 Press    =        -0.0124
------------ Step       15600000 ----- CPU =     2289.618 (sec) -------------
TotEng   =        44.6902 KinEng   =       127.4274 Temp     =       292.8030 
PotEng   =       -82.7372 E_bond   =        11.0067 E_angle  =        28.3846 
E_dihed  =        57.5081 E_impro  =         0.0000 E_vdwl   =       -49.9969 
E_coul   =      -129.6396 E_long   =         0.0000 Press    =        -0.0027
------------ Step       15700000 ----- CPU =     2303.953 (sec) -------------
TotEng   =        46.7961 KinEng   =       133.6191 Temp     =       307.0304 
PotEng   =       -86.8230 E_bond   =        10.2066 E_angle  =        25.7527 
E_dihed  =        57.9785 E_impro  =         0.0000 E_vdwl   =       -48.8829 
E_coul   =      -131.8778 E_long   =         0.0000 Press    =         0.0138
------------ Step       15800000 ----- CPU =     2318.207 (sec) -------------
TotEng   =        59.2590 KinEng   =       135.4713 Temp     =       311.2864 
PotEng   =       -76.2123 E_bond   =        15.0683 E_angle  =        32.2836 
E_dihed  =        57.4266 E_impro  =         0.0000 E_vdwl   =       -50.7865 
E_coul   =      -130.2044 E_long   =         0.0000 Press    =        -0.0255
------------ Step       15900000 ----- CPU =      2332.45 (sec) -------------
TotEng   =        55.1313 KinEng   =       142.2583 Temp     =       326.8815 
PotEng   =       -87.1269 E_bond   =        10.0277 E_angle  =        26.9543 
E_dihed  =        56.5822 E_impro  =         0.0000 E_vdwl   =       -49.8013 
E_coul   =      -130.8899 E_long   =         0.0000 Press    =         0.0030
------------ Step       16000000 ----- CPU =     2346.752 (sec) -------------
TotEng   =        41.6846 KinEng   =       122.4726 Temp     =       281.4180 
PotEng   =       -80.7880 E_bond   =        14.5597 E_angle  =        28.5219 
E_dihed  =        57.9833 E_impro  =         0.0000 E_vdwl   =       -49.8128 
E_coul   =      -132.0401 E_long   =         0.0000 Press    =        -0.0041
------------ Step       16100000 ----- CPU =      2360.92 (sec) -------------
TotEng   =        47.7689 KinEng   =       133.8488 Temp     =       307.5583 
PotEng   =       -86.0799 E_bond   =        11.4039 E_angle  =        29.3416 
E_dihed  =        55.2434 E_impro  =         0.0000 E_vdwl   =       -49.7095 
E_coul   =      -132.3593 E_long   =         0.0000 Press    =         0.0080
------------ Step       16200000 ----- CPU =     2375.176 (sec) -------------
TotEng   =        56.0206 KinEng   =       147.4633 Temp     =       338.8416 
PotEng   =       -91.4427 E_bond   =         7.4132 E_angle  =        27.3330 
E_dihed  =        57.1289 E_impro  =         0.0000 E_vdwl   =       -52.0117 
E_coul   =      -131.3061 E_long   =         0.0000 Press    =         0.0118
------------ Step       16300000 ----- CPU =     2389.413 (sec) -------------
TotEng   =        50.7970 KinEng   =       128.2121 Temp     =       294.6062 
PotEng   =       -77.4151 E_bond   =        18.2248 E_angle  =        30.4136 
E_dihed  =        56.0513 E_impro  =         0.0000 E_vdwl   =       -49.3535 
E_coul   =      -132.7513 E_long   =         0.0000 Press    =         0.0070
------------ Step       16400000 ----- CPU =     2403.631 (sec) -------------
TotEng   =        50.3278 KinEng   =       137.0067 Temp     =       314.8144 
PotEng   =       -86.6788 E_bond   =        11.4309 E_angle  =        27.6056 
E_dihed  =        55.4355 E_impro  =         0.0000 E_vdwl   =       -49.7083 
E_coul   =      -131.4425 E_long   =         0.0000 Press    =         0.0130
------------ Step       16500000 ----- CPU =     2417.823 (sec) -------------
TotEng   =        31.2183 KinEng   =       121.1131 Temp     =       278.2941 
PotEng   =       -89.8948 E_bond   =        10.0795 E_angle  =        25.1848 
E_dihed  =        56.5276 E_impro  =         0.0000 E_vdwl   =       -50.9204 
E_coul   =      -130.7662 E_long   =         0.0000 Press    =         0.0285
------------ Step       16600000 ----- CPU =     2432.041 (sec) -------------
TotEng   =        44.2609 KinEng   =       129.5859 Temp     =       297.7628 
PotEng   =       -85.3250 E_bond   =        11.9370 E_angle  =        26.2872 
E_dihed  =        58.0905 E_impro  =         0.0000 E_vdwl   =       -49.4354 
E_coul   =      -132.2043 E_long   =         0.0000 Press    =         0.0093
------------ Step       16700000 ----- CPU =     2446.541 (sec) -------------
TotEng   =        59.7669 KinEng   =       138.3220 Temp     =       317.8368 
PotEng   =       -78.5552 E_bond   =        15.8383 E_angle  =        30.4920 
E_dihed  =        58.3347 E_impro  =         0.0000 E_vdwl   =       -51.3469 
E_coul   =      -131.8734 E_long   =         0.0000 Press    =         0.0057
------------ Step       16800000 ----- CPU =     2460.895 (sec) -------------
TotEng   =        45.9843 KinEng   =       127.6291 Temp     =       293.2665 
PotEng   =       -81.6447 E_bond   =        14.1146 E_angle  =        27.6627 
E_dihed  =        56.4745 E_impro  =         0.0000 E_vdwl   =       -48.9531 
E_coul   =      -130.9435 E_long   =         0.0000 Press    =         0.0109
------------ Step       16900000 ----- CPU =      2475.16 (sec) -------------
TotEng   =        62.5761 KinEng   =       143.3541 Temp     =       329.3996 
PotEng   =       -80.7780 E_bond   =        15.1858 E_angle  =        29.1794 
E_dihed  =        56.5960 E_impro  =         0.0000 E_vdwl   =       -50.8171 
E_coul   =      -130.9222 E_long   =         0.0000 Press    =        -0.0149
------------ Step       17000000 ----- CPU =     2489.633 (sec) -------------
TotEng   =        48.6530 KinEng   =       126.2849 Temp     =       290.1778 
PotEng   =       -77.6318 E_bond   =        16.3743 E_angle  =        29.5779 
E_dihed  =        56.8611 E_impro  =         0.0000 E_vdwl   =       -50.9407 
E_coul   =      -129.5043 E_long   =         0.0000 Press    =         0.0029
------------ Step       17100000 ----- CPU =     2504.049 (sec) -------------
TotEng   =        54.0831 KinEng   =       135.0721 Temp     =       310.3690 
PotEng   =       -80.9890 E_bond   =        15.2675 E_angle  =        27.9191 
E_dihed  =        56.6364 E_impro  =         0.0000 E_vdwl   =       -50.5635 
E_coul   =      -130.2486 E_long   =         0.0000 Press    =        -0.0022
------------ Step       17200000 ----- CPU =     2518.336 (sec) -------------
TotEng   =        51.2529 KinEng   =       132.5781 Temp     =       304.6385 
PotEng   =       -81.3252 E_bond   =        15.5044 E_angle  =        30.1884 
E_dihed  =        54.4799 E_impro  =         0.0000 E_vdwl   =       -50.1707 
E_coul   =      -131.3272 E_long   =         0.0000 Press    =        -0.0108
------------ Step       17300000 ----- CPU =     2532.855 (sec) -------------
TotEng   =        52.2655 KinEng   =       129.2956 Temp     =       297.0959 
PotEng   =       -77.0301 E_bond   =        13.6557 E_angle  =        30.6225 
E_dihed  =        59.0909 E_impro  =         0.0000 E_vdwl   =       -49.6508 
E_coul   =      -130.7484 E_long   =         0.0000 Press    =         0.0005
------------ Step       17400000 ----- CPU =     2547.287 (sec) -------------
TotEng   =        40.0929 KinEng   =       121.1284 Temp     =       278.3293 
PotEng   =       -81.0356 E_bond   =        14.8446 E_angle  =        27.8154 
E_dihed  =        58.4450 E_impro  =         0.0000 E_vdwl   =       -49.0409 
E_coul   =      -133.0997 E_long   =         0.0000 Press    =        -0.0172
------------ Step       17500000 ----- CPU =     2561.628 (sec) -------------
TotEng   =        54.4527 KinEng   =       129.6070 Temp     =       297.8114 
PotEng   =       -75.1543 E_bond   =        16.8123 E_angle  =        34.4783 
E_dihed  =        55.1947 E_impro  =         0.0000 E_vdwl   =       -49.1219 
E_coul   =      -132.5178 E_long   =         0.0000 Press    =        -0.0102
------------ Step       17600000 ----- CPU =     2575.916 (sec) -------------
TotEng   =        48.0366 KinEng   =       135.0834 Temp     =       310.3950 
PotEng   =       -87.0468 E_bond   =         9.5646 E_angle  =        28.6777 
E_dihed  =        55.9197 E_impro  =         0.0000 E_vdwl   =       -50.6437 
E_coul   =      -130.5651 E_long   =         0.0000 Press    =        -0.0038
------------ Step       17700000 ----- CPU =     2590.349 (sec) -------------
TotEng   =        55.7113 KinEng   =       132.6202 Temp     =       304.7350 
PotEng   =       -76.9089 E_bond   =        13.3506 E_angle  =        33.0739 
E_dihed  =        57.0809 E_impro  =         0.0000 E_vdwl   =       -49.2348 
E_coul   =      -131.1795 E_long   =         0.0000 Press    =        -0.0028
------------ Step       17800000 ----- CPU =     2605.725 (sec) -------------
TotEng   =        45.3845 KinEng   =       128.9881 Temp     =       296.3893 
PotEng   =       -83.6036 E_bond   =        13.7562 E_angle  =        23.7565 
E_dihed  =        59.9183 E_impro  =         0.0000 E_vdwl   =       -50.1123 
E_coul   =      -130.9223 E_long   =         0.0000 Press    =        -0.0085
------------ Step       17900000 ----- CPU =     2620.747 (sec) -------------
TotEng   =        39.4627 KinEng   =       119.8532 Temp     =       275.3992 
PotEng   =       -80.3905 E_bond   =        13.6023 E_angle  =        29.0226 
E_dihed  =        57.4800 E_impro  =         0.0000 E_vdwl   =       -50.6778 
E_coul   =      -129.8176 E_long   =         0.0000 Press    =        -0.0090
------------ Step       18000000 ----- CPU =     2635.871 (sec) -------------
TotEng   =        53.3625 KinEng   =       126.4055 Temp     =       290.4549 
PotEng   =       -73.0430 E_bond   =        18.4473 E_angle  =        33.3250 
E_dihed  =        57.4725 E_impro  =         0.0000 E_vdwl   =       -50.1703 
E_coul   =      -132.1175 E_long   =         0.0000 Press    =        -0.0018
------------ Step       18100000 ----- CPU =     2652.612 (sec) -------------
TotEng   =        79.7649 KinEng   =       154.1978 Temp     =       354.3162 
PotEng   =       -74.4329 E_bond   =        18.1456 E_angle  =        28.7770 
E_dihed  =        58.5344 E_impro  =         0.0000 E_vdwl   =       -49.3415 
E_coul   =      -130.5484 E_long   =         0.0000 Press    =        -0.0052
------------ Step       18200000 ----- CPU =     2669.404 (sec) -------------
TotEng   =        46.7296 KinEng   =       125.8415 Temp     =       289.1591 
PotEng   =       -79.1120 E_bond   =        13.5027 E_angle  =        29.9920 
E_dihed  =        56.8276 E_impro  =         0.0000 E_vdwl   =       -49.4365 
E_coul   =      -129.9978 E_long   =         0.0000 Press    =        -0.0318
------------ Step       18300000 ----- CPU =     2685.986 (sec) -------------
TotEng   =        40.4882 KinEng   =       121.2750 Temp     =       278.6661 
PotEng   =       -80.7869 E_bond   =        13.9708 E_angle  =        28.6926 
E_dihed  =        56.3644 E_impro  =         0.0000 E_vdwl   =       -48.4077 
E_coul   =      -131.4068 E_long   =         0.0000 Press    =         0.0156
------------ Step       18400000 ----- CPU =     2701.936 (sec) -------------
TotEng   =        56.1126 KinEng   =       126.9973 Temp     =       291.8149 
PotEng   =       -70.8847 E_bond   =        19.6045 E_angle  =        32.3706 
E_dihed  =        58.1253 E_impro  =         0.0000 E_vdwl   =       -49.5768 
E_coul   =      -131.4083 E_long   =         0.0000 Press    =        -0.0043
------------ Step       18500000 ----- CPU =     2718.109 (sec) -------------
TotEng   =        49.3022 KinEng   =       129.9970 Temp     =       298.7075 
PotEng   =       -80.6948 E_bond   =        14.4262 E_angle  =        29.3382 
E_dihed  =        59.7857 E_impro  =         0.0000 E_vdwl   =       -52.2153 
E_coul   =      -132.0296 E_long   =         0.0000 Press    =         0.0060
------------ Step       18600000 ----- CPU =     2734.882 (sec) -------------
TotEng   =        53.5053 KinEng   =       137.9921 Temp     =       317.0787 
PotEng   =       -84.4868 E_bond   =        13.7677 E_angle  =        24.7541 
[...]
PotEng   =       -99.4888 E_bond   =         4.8401 E_angle  =        19.5371 
E_dihed  =        56.1605 E_impro  =         0.0000 E_vdwl   =       -48.5313 
E_coul   =      -131.4953 E_long   =         0.0000 Press    =         0.0007
------------ Step       95400000 ----- CPU =     13741.29 (sec) -------------
TotEng   =        29.1589 KinEng   =       129.4937 Temp     =       297.5511 
PotEng   =      -100.3348 E_bond   =         3.2181 E_angle  =        21.2547 
E_dihed  =        53.9217 E_impro  =         0.0000 E_vdwl   =       -47.9124 
E_coul   =      -130.8170 E_long   =         0.0000 Press    =         0.0039
------------ Step       95500000 ----- CPU =     13754.81 (sec) -------------
TotEng   =        32.2529 KinEng   =       132.6430 Temp     =       304.7876 
PotEng   =      -100.3901 E_bond   =         4.8942 E_angle  =        18.3765 
E_dihed  =        54.7968 E_impro  =         0.0000 E_vdwl   =       -47.4744 
E_coul   =      -130.9833 E_long   =         0.0000 Press    =        -0.0057
------------ Step       95600000 ----- CPU =     13768.35 (sec) -------------
TotEng   =        37.6765 KinEng   =       135.9864 Temp     =       312.4701 
PotEng   =       -98.3099 E_bond   =         5.1378 E_angle  =        19.5524 
E_dihed  =        54.1335 E_impro  =         0.0000 E_vdwl   =       -47.3129 
E_coul   =      -129.8206 E_long   =         0.0000 Press    =        -0.0090
------------ Step       95700000 ----- CPU =      13781.9 (sec) -------------
TotEng   =        24.4520 KinEng   =       124.6572 Temp     =       286.4377 
PotEng   =      -100.2052 E_bond   =         4.0293 E_angle  =        21.0091 
E_dihed  =        53.4900 E_impro  =         0.0000 E_vdwl   =       -47.0229 
E_coul   =      -131.7107 E_long   =         0.0000 Press    =         0.0115
------------ Step       95800000 ----- CPU =     13795.55 (sec) -------------
TotEng   =        23.4909 KinEng   =       123.0754 Temp     =       282.8032 
PotEng   =       -99.5845 E_bond   =         3.2867 E_angle  =        20.9698 
E_dihed  =        53.9491 E_impro  =         0.0000 E_vdwl   =       -47.4834 
E_coul   =      -130.3068 E_long   =         0.0000 Press    =         0.0019
------------ Step       95900000 ----- CPU =     13809.27 (sec) -------------
TotEng   =        14.0878 KinEng   =       115.3059 Temp     =       264.9503 
PotEng   =      -101.2181 E_bond   =         4.3682 E_angle  =        20.1623 
E_dihed  =        53.4340 E_impro  =         0.0000 E_vdwl   =       -47.6294 
E_coul   =      -131.5531 E_long   =         0.0000 Press    =         0.0039
------------ Step       96000000 ----- CPU =     13822.85 (sec) -------------
TotEng   =        28.4243 KinEng   =       126.9934 Temp     =       291.8058 
PotEng   =       -98.5691 E_bond   =         5.1692 E_angle  =        19.1567 
E_dihed  =        55.6449 E_impro  =         0.0000 E_vdwl   =       -47.2372 
E_coul   =      -131.3027 E_long   =         0.0000 Press    =         0.0009
------------ Step       96100000 ----- CPU =     13836.74 (sec) -------------
TotEng   =        34.6786 KinEng   =       133.2098 Temp     =       306.0898 
PotEng   =       -98.5311 E_bond   =         5.5718 E_angle  =        18.6224 
E_dihed  =        56.7081 E_impro  =         0.0000 E_vdwl   =       -48.8085 
E_coul   =      -130.6249 E_long   =         0.0000 Press    =        -0.0195
------------ Step       96200000 ----- CPU =     13850.75 (sec) -------------
TotEng   =        15.6213 KinEng   =       115.8242 Temp     =       266.1412 
PotEng   =      -100.2029 E_bond   =         3.7926 E_angle  =        19.9240 
E_dihed  =        55.6337 E_impro  =         0.0000 E_vdwl   =       -48.3294 
E_coul   =      -131.2238 E_long   =         0.0000 Press    =         0.0003
------------ Step       96300000 ----- CPU =     13865.48 (sec) -------------
TotEng   =        23.3002 KinEng   =       123.5366 Temp     =       283.8627 
PotEng   =      -100.2364 E_bond   =         4.4733 E_angle  =        21.5893 
E_dihed  =        53.7538 E_impro  =         0.0000 E_vdwl   =       -48.6681 
E_coul   =      -131.3847 E_long   =         0.0000 Press    =        -0.0120
------------ Step       96400000 ----- CPU =     13879.31 (sec) -------------
TotEng   =        21.4739 KinEng   =       121.4678 Temp     =       279.1090 
PotEng   =       -99.9939 E_bond   =         4.1272 E_angle  =        21.7580 
E_dihed  =        54.8535 E_impro  =         0.0000 E_vdwl   =       -49.1845 
E_coul   =      -131.5481 E_long   =         0.0000 Press    =        -0.0022
------------ Step       96500000 ----- CPU =     13893.23 (sec) -------------
TotEng   =        19.5392 KinEng   =       121.3391 Temp     =       278.8133 
PotEng   =      -101.7999 E_bond   =         2.7154 E_angle  =        20.5561 
E_dihed  =        53.0486 E_impro  =         0.0000 E_vdwl   =       -47.2733 
E_coul   =      -130.8467 E_long   =         0.0000 Press    =         0.0067
------------ Step       96600000 ----- CPU =        13907 (sec) -------------
TotEng   =        33.6752 KinEng   =       134.8605 Temp     =       309.8828 
PotEng   =      -101.1853 E_bond   =         3.3378 E_angle  =        20.7969 
E_dihed  =        54.6524 E_impro  =         0.0000 E_vdwl   =       -49.0761 
E_coul   =      -130.8962 E_long   =         0.0000 Press    =        -0.0078
------------ Step       96700000 ----- CPU =     13920.47 (sec) -------------
TotEng   =        38.0346 KinEng   =       137.7699 Temp     =       316.5681 
PotEng   =       -99.7352 E_bond   =         4.0325 E_angle  =        21.3144 
E_dihed  =        54.5890 E_impro  =         0.0000 E_vdwl   =       -48.5361 
E_coul   =      -131.1350 E_long   =         0.0000 Press    =        -0.0009
------------ Step       96800000 ----- CPU =     13934.26 (sec) -------------
TotEng   =        24.2613 KinEng   =       123.6035 Temp     =       284.0165 
PotEng   =       -99.3422 E_bond   =         4.6620 E_angle  =        21.7293 
E_dihed  =        53.2807 E_impro  =         0.0000 E_vdwl   =       -48.0440 
E_coul   =      -130.9702 E_long   =         0.0000 Press    =         0.0036
------------ Step       96900000 ----- CPU =     13947.75 (sec) -------------
TotEng   =        20.9488 KinEng   =       121.1882 Temp     =       278.4666 
PotEng   =      -100.2394 E_bond   =         3.5074 E_angle  =        19.5044 
E_dihed  =        54.7827 E_impro  =         0.0000 E_vdwl   =       -47.8715 
E_coul   =      -130.1623 E_long   =         0.0000 Press    =         0.0112
------------ Step       97000000 ----- CPU =      13961.4 (sec) -------------
TotEng   =        22.0390 KinEng   =       123.1854 Temp     =       283.0559 
PotEng   =      -101.1464 E_bond   =         4.2743 E_angle  =        20.5910 
E_dihed  =        54.2995 E_impro  =         0.0000 E_vdwl   =       -49.7180 
E_coul   =      -130.5931 E_long   =         0.0000 Press    =        -0.0024
------------ Step       97100000 ----- CPU =     13975.17 (sec) -------------
TotEng   =        25.6630 KinEng   =       125.4268 Temp     =       288.2061 
PotEng   =       -99.7638 E_bond   =         2.4846 E_angle  =        19.5990 
E_dihed  =        56.0258 E_impro  =         0.0000 E_vdwl   =       -46.4160 
E_coul   =      -131.4572 E_long   =         0.0000 Press    =         0.0079
------------ Step       97200000 ----- CPU =     13988.85 (sec) -------------
TotEng   =        43.2028 KinEng   =       142.2773 Temp     =       326.9252 
PotEng   =       -99.0745 E_bond   =         4.5850 E_angle  =        21.2617 
E_dihed  =        55.6398 E_impro  =         0.0000 E_vdwl   =       -49.5871 
E_coul   =      -130.9738 E_long   =         0.0000 Press    =         0.0060
------------ Step       97300000 ----- CPU =     14002.77 (sec) -------------
TotEng   =        47.2496 KinEng   =       144.4767 Temp     =       331.9791 
PotEng   =       -97.2271 E_bond   =         5.7278 E_angle  =        18.9890 
E_dihed  =        55.8699 E_impro  =         0.0000 E_vdwl   =       -47.0408 
E_coul   =      -130.7730 E_long   =         0.0000 Press    =        -0.0016
------------ Step       97400000 ----- CPU =     14016.48 (sec) -------------
TotEng   =        29.4534 KinEng   =       129.1334 Temp     =       296.7232 
PotEng   =       -99.6801 E_bond   =         3.9794 E_angle  =        20.9219 
E_dihed  =        54.4757 E_impro  =         0.0000 E_vdwl   =       -48.5479 
E_coul   =      -130.5091 E_long   =         0.0000 Press    =         0.0125
------------ Step       97500000 ----- CPU =      14030.2 (sec) -------------
TotEng   =        24.1600 KinEng   =       125.3190 Temp     =       287.9584 
PotEng   =      -101.1590 E_bond   =         3.8656 E_angle  =        20.3793 
E_dihed  =        54.8565 E_impro  =         0.0000 E_vdwl   =       -48.5007 
E_coul   =      -131.7598 E_long   =         0.0000 Press    =         0.0007
------------ Step       97600000 ----- CPU =     14044.06 (sec) -------------
TotEng   =        33.4352 KinEng   =       134.2499 Temp     =       308.4800 
PotEng   =      -100.8147 E_bond   =         3.7227 E_angle  =        21.1731 
E_dihed  =        53.5908 E_impro  =         0.0000 E_vdwl   =       -48.0913 
E_coul   =      -131.2100 E_long   =         0.0000 Press    =         0.0019
------------ Step       97700000 ----- CPU =     14057.91 (sec) -------------
TotEng   =        36.1374 KinEng   =       134.1709 Temp     =       308.2983 
PotEng   =       -98.0335 E_bond   =         5.4987 E_angle  =        19.9639 
E_dihed  =        54.4005 E_impro  =         0.0000 E_vdwl   =       -48.6684 
E_coul   =      -129.2282 E_long   =         0.0000 Press    =        -0.0158
------------ Step       97800000 ----- CPU =     14071.89 (sec) -------------
TotEng   =        31.5432 KinEng   =       133.3502 Temp     =       306.4125 
PotEng   =      -101.8070 E_bond   =         4.1087 E_angle  =        20.4955 
E_dihed  =        53.7657 E_impro  =         0.0000 E_vdwl   =       -48.6482 
E_coul   =      -131.5288 E_long   =         0.0000 Press    =         0.0146
------------ Step       97900000 ----- CPU =     14085.54 (sec) -------------
TotEng   =        33.1038 KinEng   =       132.9298 Temp     =       305.4465 
PotEng   =       -99.8260 E_bond   =         5.4815 E_angle  =        19.9926 
E_dihed  =        54.3810 E_impro  =         0.0000 E_vdwl   =       -47.6355 
E_coul   =      -132.0456 E_long   =         0.0000 Press    =        -0.0017
------------ Step       98000000 ----- CPU =     14099.33 (sec) -------------
TotEng   =        12.9323 KinEng   =       112.6402 Temp     =       258.8251 
PotEng   =       -99.7079 E_bond   =         5.2482 E_angle  =        19.0729 
E_dihed  =        54.4393 E_impro  =         0.0000 E_vdwl   =       -48.3367 
E_coul   =      -130.1316 E_long   =         0.0000 Press    =        -0.0054
------------ Step       98100000 ----- CPU =     14113.41 (sec) -------------
TotEng   =        28.1574 KinEng   =       127.7740 Temp     =       293.5994 
PotEng   =       -99.6166 E_bond   =         5.0908 E_angle  =        20.0566 
E_dihed  =        55.0993 E_impro  =         0.0000 E_vdwl   =       -48.1753 
E_coul   =      -131.6880 E_long   =         0.0000 Press    =        -0.0061
------------ Step       98200000 ----- CPU =     14126.98 (sec) -------------
TotEng   =        37.4382 KinEng   =       137.3285 Temp     =       315.5538 
PotEng   =       -99.8903 E_bond   =         3.5373 E_angle  =        21.0839 
E_dihed  =        53.5687 E_impro  =         0.0000 E_vdwl   =       -47.7690 
E_coul   =      -130.3113 E_long   =         0.0000 Press    =        -0.0102
------------ Step       98300000 ----- CPU =     14140.62 (sec) -------------
TotEng   =        26.4851 KinEng   =       127.8459 Temp     =       293.7648 
PotEng   =      -101.3608 E_bond   =         3.1964 E_angle  =        20.2699 
E_dihed  =        55.2017 E_impro  =         0.0000 E_vdwl   =       -48.7281 
E_coul   =      -131.3007 E_long   =         0.0000 Press    =         0.0019
------------ Step       98400000 ----- CPU =     14154.59 (sec) -------------
TotEng   =        22.8803 KinEng   =       123.9391 Temp     =       284.7878 
PotEng   =      -101.0589 E_bond   =         3.9663 E_angle  =        20.2245 
E_dihed  =        55.4029 E_impro  =         0.0000 E_vdwl   =       -49.6471 
E_coul   =      -131.0055 E_long   =         0.0000 Press    =        -0.0135
------------ Step       98500000 ----- CPU =     14168.38 (sec) -------------
TotEng   =        17.2970 KinEng   =       117.8392 Temp     =       270.7713 
PotEng   =      -100.5423 E_bond   =         4.2464 E_angle  =        20.6032 
E_dihed  =        55.7702 E_impro  =         0.0000 E_vdwl   =       -49.3225 
E_coul   =      -131.8396 E_long   =         0.0000 Press    =         0.0005
------------ Step       98600000 ----- CPU =     14182.08 (sec) -------------
TotEng   =        22.3435 KinEng   =       122.6511 Temp     =       281.8281 
PotEng   =      -100.3076 E_bond   =         4.5250 E_angle  =        18.6196 
E_dihed  =        55.8385 E_impro  =         0.0000 E_vdwl   =       -49.2774 
E_coul   =      -130.0133 E_long   =         0.0000 Press    =        -0.0023
------------ Step       98700000 ----- CPU =      14195.6 (sec) -------------
TotEng   =        21.8193 KinEng   =       122.6803 Temp     =       281.8951 
PotEng   =      -100.8609 E_bond   =         4.5400 E_angle  =        20.9945 
E_dihed  =        54.0527 E_impro  =         0.0000 E_vdwl   =       -48.3228 
E_coul   =      -132.1252 E_long   =         0.0000 Press    =        -0.0080
------------ Step       98800000 ----- CPU =     14209.42 (sec) -------------
TotEng   =        19.3651 KinEng   =       120.8848 Temp     =       277.7695 
PotEng   =      -101.5197 E_bond   =         4.4985 E_angle  =        20.4185 
E_dihed  =        53.2395 E_impro  =         0.0000 E_vdwl   =       -48.8360 
E_coul   =      -130.8402 E_long   =         0.0000 Press    =        -0.0178
------------ Step       98900000 ----- CPU =     14223.12 (sec) -------------
TotEng   =        29.4271 KinEng   =       127.3713 Temp     =       292.6741 
PotEng   =       -97.9441 E_bond   =         4.4992 E_angle  =        22.0348 
E_dihed  =        56.2701 E_impro  =         0.0000 E_vdwl   =       -49.5317 
E_coul   =      -131.2165 E_long   =         0.0000 Press    =        -0.0042
------------ Step       99000000 ----- CPU =      14236.9 (sec) -------------
TotEng   =        48.4056 KinEng   =       147.9477 Temp     =       339.9548 
PotEng   =       -99.5422 E_bond   =         4.0507 E_angle  =        19.5421 
E_dihed  =        56.7308 E_impro  =         0.0000 E_vdwl   =       -50.2334 
E_coul   =      -129.6324 E_long   =         0.0000 Press    =        -0.0025
------------ Step       99100000 ----- CPU =     14251.08 (sec) -------------
TotEng   =        27.8478 KinEng   =       125.5278 Temp     =       288.4382 
PotEng   =       -97.6800 E_bond   =         4.6837 E_angle  =        20.4576 
E_dihed  =        54.7464 E_impro  =         0.0000 E_vdwl   =       -49.2362 
E_coul   =      -128.3316 E_long   =         0.0000 Press    =         0.0036
------------ Step       99200000 ----- CPU =     14265.15 (sec) -------------
TotEng   =        35.7955 KinEng   =       134.6172 Temp     =       309.3238 
PotEng   =       -98.8217 E_bond   =         4.6139 E_angle  =        20.3113 
E_dihed  =        54.2588 E_impro  =         0.0000 E_vdwl   =       -48.4049 
E_coul   =      -129.6007 E_long   =         0.0000 Press    =        -0.0079
------------ Step       99300000 ----- CPU =      14278.8 (sec) -------------
TotEng   =        33.7922 KinEng   =       132.3755 Temp     =       304.1728 
PotEng   =       -98.5833 E_bond   =         5.0938 E_angle  =        19.2927 
E_dihed  =        55.3092 E_impro  =         0.0000 E_vdwl   =       -47.9445 
E_coul   =      -130.3344 E_long   =         0.0000 Press    =         0.0158
------------ Step       99400000 ----- CPU =     14292.65 (sec) -------------
TotEng   =        18.7923 KinEng   =       118.5811 Temp     =       272.4761 
PotEng   =       -99.7889 E_bond   =         4.8688 E_angle  =        20.5504 
E_dihed  =        52.8527 E_impro  =         0.0000 E_vdwl   =       -47.2977 
E_coul   =      -130.7631 E_long   =         0.0000 Press    =         0.0046
------------ Step       99500000 ----- CPU =     14306.35 (sec) -------------
TotEng   =        27.8434 KinEng   =       127.4979 Temp     =       292.9650 
PotEng   =       -99.6545 E_bond   =         4.5085 E_angle  =        21.4248 
E_dihed  =        54.7634 E_impro  =         0.0000 E_vdwl   =       -48.9669 
E_coul   =      -131.3843 E_long   =         0.0000 Press    =        -0.0029
------------ Step       99600000 ----- CPU =     14320.09 (sec) -------------
TotEng   =        28.4105 KinEng   =       127.9348 Temp     =       293.9690 
PotEng   =       -99.5243 E_bond   =         4.7814 E_angle  =        21.0889 
E_dihed  =        54.4875 E_impro  =         0.0000 E_vdwl   =       -48.5974 
E_coul   =      -131.2847 E_long   =         0.0000 Press    =        -0.0032
------------ Step       99700000 ----- CPU =     14333.96 (sec) -------------
TotEng   =        25.8376 KinEng   =       126.7894 Temp     =       291.3371 
PotEng   =      -100.9518 E_bond   =         4.2472 E_angle  =        18.1062 
E_dihed  =        55.2522 E_impro  =         0.0000 E_vdwl   =       -48.3795 
E_coul   =      -130.1779 E_long   =         0.0000 Press    =         0.0015
------------ Step       99800000 ----- CPU =     14347.76 (sec) -------------
TotEng   =        37.2900 KinEng   =       136.2476 Temp     =       313.0702 
PotEng   =       -98.9576 E_bond   =         5.4250 E_angle  =        19.3166 
E_dihed  =        56.4930 E_impro  =         0.0000 E_vdwl   =       -48.0438 
E_coul   =      -132.1483 E_long   =         0.0000 Press    =        -0.0077
------------ Step       99900000 ----- CPU =     14361.61 (sec) -------------
TotEng   =        22.7256 KinEng   =       122.6321 Temp     =       281.7845 
PotEng   =       -99.9065 E_bond   =         4.4490 E_angle  =        20.1304 
E_dihed  =        55.9425 E_impro  =         0.0000 E_vdwl   =       -49.0848 
E_coul   =      -131.3436 E_long   =         0.0000 Press    =         0.0028
------------ Step      100000000 ----- CPU =     14375.39 (sec) -------------
TotEng   =        25.6681 KinEng   =       125.1239 Temp     =       287.5101 
PotEng   =       -99.4558 E_bond   =         4.4713 E_angle  =        21.1262 
E_dihed  =        53.4298 E_impro  =         0.0000 E_vdwl   =       -46.7599 
E_coul   =      -131.7233 E_long   =         0.0000 Press    =         0.0086
Loop time of 14375.4 on 1 procs for 100000000 steps with 147 atoms

Performance: 601.027 ns/day, 0.040 hours/ns, 6956.333 timesteps/s
100.0% CPU use with 1 MPI tasks x no OpenMP threads

MPI task timing breakdown:
Section |  min time  |  avg time  |  max time  |%varavg| %total
---------------------------------------------------------------
Pair    | 6222.7     | 6222.7     | 6222.7     |   0.0 | 43.29
Bond    | 2003.6     | 2003.6     | 2003.6     |   0.0 | 13.94
Neigh   | 947.03     | 947.03     | 947.03     |   0.0 |  6.59
Comm    | 22.38      | 22.38      | 22.38      |   0.0 |  0.16
Output  | 0.048554   | 0.048554   | 0.048554   |   0.0 |  0.00
Modify  | 5159.3     | 5159.3     | 5159.3     |   0.0 | 35.89
Other   |            | 20.39      |            |       |  0.14

Nlocal:            147 ave         147 max         147 min
Histogram: 1 0 0 0 0 0 0 0 0 0
Nghost:              0 ave           0 max           0 min
Histogram: 1 0 0 0 0 0 0 0 0 0
Neighs:           9939 ave        9939 max        9939 min
Histogram: 1 0 0 0 0 0 0 0 0 0

Total # of neighbors = 9939
Ave neighs/atom = 67.612245
Ave special neighs/atom = 10.77551
Neighbor list builds = 9919383
Dangerous builds = 9860477

print "All done"
All done


Total wall time: 3:59:35
