Dmsdx	Dmdsy	Dmsdz	Dmsd	Dvaf	e/kb/T	CCScoeff
0.026663	0.027116	0.022811	0.025530	0.026805	38.695652	2.276189e+02
