Dmsdx	Dmdsy	Dmsdz	Dmsd	Dvaf	e/kb/T	CCScoeff
0.022056	0.021183	0.021944	0.021728	0.023115	38.695652	2.276189e+02
