Dmsdx	Dmdsy	Dmsdz	Dmsd	Dvaf	e/kb/T	CCScoeff
0.021311	0.023699	0.023976	0.022995	0.023797	38.695652	2.276189e+02
