Dmsdx	Dmdsy	Dmsdz	Dmsd	Dvaf	e/kb/T	CCScoeff
0.021858	0.020639	0.021958	0.021485	0.024926	38.695652	2.276189e+02
