Dmsdx	Dmdsy	Dmsdz	Dmsd	Dvaf	e/kb/T	CCScoeff
0.023054	0.024751	0.021085	0.022964	0.025778	38.695652	2.276189e+02
