Dmsdx	Dmdsy	Dmsdz	Dmsd	Dvaf	e/kb/T	CCScoeff
0.024553	0.024940	0.026045	0.025179	0.027779	38.695652	2.276189e+02
