Dmsdx	Dmdsy	Dmsdz	Dmsd	Dvaf	e/kb/T	CCScoeff
0.021028	0.022109	0.021910	0.021682	0.025331	38.695652	2.276189e+02
