Dmsdx	Dmdsy	Dmsdz	Dmsd	Dvaf	e/kb/T	CCScoeff
0.022485	0.019801	0.025079	0.022455	0.025783	38.695652	2.276189e+02
