Dmsdx	Dmdsy	Dmsdz	Dmsd	Dvaf	e/kb/T	CCScoeff
0.028870	0.030859	0.026910	0.028879	0.030797	38.695652	2.276189e+02
