0.000000	0.000000	6.156516e-06
0.005000	52.476680	1.568787e-06
0.010000	190.024041	1.820814e-06
0.015000	416.869750	1.789132e-06
0.020000	733.446795	1.754853e-06
0.025000	1137.998572	1.741292e-06
0.030000	1629.538344	1.720966e-06
0.035000	2207.061679	1.698626e-06
0.040000	2869.622460	1.689394e-06
0.045000	3616.267767	1.662663e-06
0.050000	4446.005272	1.647663e-06
0.055000	5357.897345	1.623483e-06
0.060000	6351.028899	1.606649e-06
0.065000	7424.465895	1.592694e-06
0.070000	8577.246860	1.568207e-06
0.075000	9808.442719	1.544316e-06
0.080000	11117.173710	1.529811e-06
0.085000	12502.544645	1.510531e-06
0.090000	13963.611973	1.496307e-06
0.095000	15499.511067	1.476297e-06
0.100000	17109.416459	1.452397e-06
0.105000	18792.424137	1.440147e-06
0.110000	20547.681460	1.425216e-06
0.115000	22374.390814	1.410143e-06
0.120000	24271.677995	1.400258e-06
0.125000	26238.753915	1.372511e-06
0.130000	28274.775590	1.365979e-06
0.135000	30378.957415	1.343600e-06
0.140000	32550.503837	1.330020e-06
0.145000	34788.619687	1.309972e-06
0.150000	37092.514684	1.303297e-06
0.155000	39461.456519	1.283409e-06
0.160000	41894.689558	1.268540e-06
0.165000	44391.439491	1.248612e-06
0.170000	46950.965241	1.240099e-06
0.175000	49572.550596	1.224518e-06
0.180000	52255.416198	1.212675e-06
0.185000	54998.919664	1.190987e-06
0.190000	57802.319105	1.181704e-06
0.195000	60664.897151	1.160202e-06
0.200000	63585.940518	1.144892e-06
0.205000	66564.813647	1.138105e-06
0.210000	69600.790182	1.130770e-06
0.215000	72693.205284	1.112612e-06
0.220000	75841.394104	1.102776e-06
0.225000	79044.701121	1.090614e-06
0.230000	82302.431844	1.075778e-06
0.235000	85613.978926	1.062145e-06
0.240000	88978.682584	1.046092e-06
0.245000	92395.895896	1.045006e-06
0.250000	95865.001901	1.026870e-06
0.255000	99385.380618	1.012404e-06
0.260000	102956.404121	9.964370e-07
0.265000	106577.492993	9.917227e-07
0.270000	110248.054102	9.710447e-07
0.275000	113967.462282	9.590998e-07
0.280000	117735.143154	9.518438e-07
0.285000	121550.539054	9.377267e-07
0.290000	125413.057296	9.248970e-07
0.295000	129322.123329	9.266504e-07
0.300000	133277.228564	9.071839e-07
0.305000	137277.806466	8.947119e-07
0.310000	141323.325843	8.857862e-07
0.315000	145413.229473	8.772162e-07
0.320000	149546.994804	8.596922e-07
0.325000	153724.137449	8.526399e-07
0.330000	157944.137724	8.454504e-07
0.335000	162206.523486	8.297461e-07
0.340000	166510.748292	8.287960e-07
0.345000	170856.380219	8.174275e-07
0.350000	175242.916601	8.077314e-07
0.355000	179669.907766	7.991200e-07
0.360000	184136.886548	7.899153e-07
0.365000	188643.389532	7.829590e-07
0.370000	193188.963532	7.671518e-07
0.375000	197773.142111	7.633435e-07
0.380000	202395.502371	7.537420e-07
0.385000	207055.616340	7.451787e-07
0.390000	211753.016536	7.376324e-07
0.395000	216487.301823	7.222528e-07
0.400000	221258.009103	7.215594e-07
0.405000	226064.762133	7.165391e-07
0.410000	230907.100149	6.972340e-07
0.415000	235784.611396	6.933398e-07
0.420000	240696.904333	6.799919e-07
0.425000	245643.544787	6.712207e-07
0.430000	250624.146706	6.681545e-07
0.435000	255638.329479	6.658400e-07
0.440000	260685.671306	6.559553e-07
0.445000	265765.823259	6.506548e-07
0.450000	270878.349507	6.462005e-07
0.455000	276022.898149	6.298970e-07
0.460000	281199.064205	6.273687e-07
0.465000	286406.495864	6.170139e-07
0.470000	291644.814043	6.091180e-07
0.475000	296913.652855	5.959728e-07
0.480000	302212.609399	5.949795e-07
0.485000	307541.343296	5.924097e-07
0.490000	312899.509199	5.835718e-07
0.495000	318286.743827	5.811606e-07
0.500000	323702.670293	5.676069e-07
0.505000	329146.950021	5.578689e-07
0.510000	334619.245211	5.577930e-07
0.515000	340119.193336	5.415702e-07
0.520000	345646.502486	5.318143e-07
0.525000	351200.768553	5.396323e-07
0.530000	356781.733573	5.237115e-07
0.535000	362389.027786	5.134901e-07
0.540000	368022.356853	5.145098e-07
0.545000	373681.393821	5.055771e-07
0.550000	379365.790015	5.041102e-07
0.555000	385075.271505	5.035635e-07
0.560000	390809.557619	4.989200e-07
0.565000	396568.291328	4.877590e-07
0.570000	402351.228152	4.841439e-07
0.575000	408158.045366	4.773925e-07
0.580000	413988.466407	4.704336e-07
0.585000	419842.183388	4.603278e-07
0.590000	425718.921305	4.606025e-07
0.595000	431618.408927	4.565075e-07
0.600000	437540.373799	4.471863e-07
0.605000	443484.490875	4.413967e-07
0.610000	449450.557682	4.370700e-07
0.615000	455438.258074	4.407106e-07
0.620000	461447.366070	4.281333e-07
0.625000	467477.654141	4.150136e-07
0.630000	473528.876922	4.190220e-07
0.635000	479600.729379	4.087083e-07
0.640000	485693.016013	4.080486e-07
0.645000	491805.487338	3.988582e-07
0.650000	497937.919413	3.933972e-07
0.655000	504090.077476	3.901415e-07
0.660000	510261.698644	3.844675e-07
0.665000	516452.585277	3.774451e-07
0.670000	522662.476702	3.842320e-07
0.675000	528891.164519	3.762444e-07
0.680000	535138.418529	3.699241e-07
0.685000	541404.033218	3.607101e-07
0.690000	547687.809109	3.572301e-07
0.695000	553989.504416	3.531693e-07
0.700000	560308.927407	3.518771e-07
0.705000	566645.936497	3.448869e-07
0.710000	573000.252047	3.436124e-07
0.715000	579371.703693	3.342073e-07
0.720000	585760.103797	3.409039e-07
0.725000	592165.273514	3.322876e-07
0.730000	598587.001947	3.267254e-07
0.735000	605025.123395	3.348537e-07
0.740000	611479.482337	3.144110e-07
0.745000	617949.882184	3.205870e-07
0.750000	624436.140057	3.088287e-07
0.755000	630938.105508	3.121493e-07
0.760000	637455.595952	3.097425e-07
0.765000	643988.425567	3.102901e-07
0.770000	650536.470608	2.971602e-07
0.775000	657099.533450	3.005162e-07
0.780000	663677.451002	2.982325e-07
0.785000	670270.084906	2.911393e-07
0.790000	676877.244375	2.869302e-07
0.795000	683498.790209	2.909557e-07
0.800000	690134.592797	2.751089e-07
0.805000	696784.478821	2.828295e-07
0.810000	703448.300825	2.772587e-07
0.815000	710125.944137	2.670883e-07
0.820000	716817.222871	2.712022e-07
0.825000	723522.000163	2.699490e-07
0.830000	730240.156273	2.662693e-07
0.835000	736971.518243	2.618558e-07
0.840000	743715.965309	2.579282e-07
0.845000	750473.288688	2.585171e-07
0.850000	757243.408581	2.518070e-07
0.855000	764026.134870	2.588625e-07
0.860000	770821.361845	2.465525e-07
0.865000	777628.921811	2.458912e-07
0.870000	784448.660238	2.392342e-07
0.875000	791280.476295	2.406947e-07
0.880000	798124.194888	2.455433e-07
0.885000	804979.722379	2.307980e-07
0.890000	811846.885590	2.317727e-07
0.895000	818725.599537	2.329098e-07
0.900000	825615.729714	2.283259e-07
0.905000	832517.143048	2.279292e-07
0.910000	839429.694793	2.259048e-07
0.915000	846353.268486	2.210190e-07
0.920000	853287.760929	2.068597e-07
0.925000	860233.035796	2.077872e-07
0.930000	867188.983766	2.159307e-07
0.935000	874155.513167	2.152078e-07
0.940000	881132.496234	2.037617e-07
0.945000	888119.822772	2.029330e-07
0.950000	895117.357921	2.012345e-07
0.955000	902124.997087	1.978341e-07
0.960000	909142.632700	1.981946e-07
0.965000	916170.132862	1.875110e-07
0.970000	923207.442284	1.964644e-07
0.975000	930254.409689	1.863839e-07
0.980000	937310.933535	1.986355e-07
0.985000	944376.915952	1.821047e-07
0.990000	951452.206405	1.876185e-07
0.995000	958536.715210	1.858474e-07
1.000000	965630.345885	1.792115e-07
1.005000	972732.955351	1.791566e-07
1.010000	979844.466812	1.783910e-07
1.015000	986964.740229	1.689256e-07
1.020000	994093.682801	1.723372e-07
1.025000	1001231.186034	1.698011e-07
1.030000	1008377.133006	1.651919e-07
1.035000	1015531.427576	1.665963e-07
1.040000	1022693.954892	1.644269e-07
1.045000	1029864.642565	1.602569e-07
1.050000	1037043.392946	1.667539e-07
1.055000	1044230.055390	1.637345e-07
1.060000	1051424.601285	1.586274e-07
1.065000	1058626.940973	1.623124e-07
1.070000	1065836.966696	1.592057e-07
1.075000	1073054.592155	1.566236e-07
1.080000	1080279.700720	1.535358e-07
1.085000	1087512.268240	1.489145e-07
1.090000	1094752.165210	1.436049e-07
1.095000	1101999.282475	1.494523e-07
1.100000	1109253.600601	1.511322e-07
1.105000	1116514.981968	1.437703e-07
1.110000	1123783.353795	1.459424e-07
1.115000	1131058.667253	1.485255e-07
1.120000	1138340.799538	1.328337e-07
1.125000	1145629.679371	1.428262e-07
1.130000	1152925.272498	1.339056e-07
1.135000	1160227.466212	1.350269e-07
1.140000	1167536.182503	1.362715e-07
1.145000	1174851.325243	1.272919e-07
1.150000	1182172.809938	1.278933e-07
1.155000	1189500.554276	1.224340e-07
1.160000	1196834.495014	1.238056e-07
1.165000	1204174.561787	1.265766e-07
1.170000	1211520.662684	1.238765e-07
1.175000	1218872.712994	1.192166e-07
1.180000	1226230.646194	1.137317e-07
1.185000	1233594.377170	1.184763e-07
1.190000	1240963.845252	1.119448e-07
1.195000	1248338.952513	1.120401e-07
1.200000	1255719.713738	1.074107e-07
1.205000	1263105.968291	1.141769e-07
1.210000	1270497.683754	1.074358e-07
1.215000	1277894.772189	1.144199e-07
1.220000	1285297.145064	1.161631e-07
1.225000	1292704.721656	1.041325e-07
1.230000	1300117.411093	9.966685e-08
1.235000	1307535.145783	1.056993e-07
1.240000	1314957.882511	1.051932e-07
1.245000	1322385.516692	1.069649e-07
1.250000	1329818.021593	9.241604e-08
1.255000	1337255.300825	1.061056e-07
1.260000	1344697.282993	9.833970e-08
1.265000	1352143.944937	9.378374e-08
1.270000	1359595.192576	9.619892e-08
1.275000	1367050.952487	8.911123e-08
1.280000	1374511.144859	8.806421e-08
1.285000	1381975.716139	9.568554e-08
1.290000	1389444.669144	9.239835e-08
1.295000	1396917.834361	8.847098e-08
1.300000	1404395.170964	9.282655e-08
1.305000	1411876.600829	8.068136e-08
1.310000	1419362.090577	8.673304e-08
1.315000	1426851.598873	8.580652e-08
1.320000	1434345.034986	9.143504e-08
1.325000	1441842.353844	7.739152e-08
1.330000	1449343.489524	8.096447e-08
1.335000	1456848.411981	7.999381e-08
1.340000	1464357.041889	7.791068e-08
1.345000	1471869.364064	8.224680e-08
1.350000	1479385.281655	7.805851e-08
1.355000	1486904.767984	6.864582e-08
1.360000	1494427.749335	7.143466e-08
1.365000	1501954.173268	6.735824e-08
1.370000	1509484.009342	6.506937e-08
1.375000	1517017.194407	6.748172e-08
1.380000	1524553.687001	6.899547e-08
1.385000	1532093.400108	7.013645e-08
1.390000	1539636.314189	7.033799e-08
1.395000	1547182.363723	6.315606e-08
1.400000	1554731.488605	6.467678e-08
1.405000	1562283.639189	6.780171e-08
1.410000	1569838.775348	6.576223e-08
1.415000	1577396.830985	5.880879e-08
1.420000	1584957.763000	6.697249e-08
1.425000	1592521.530241	5.966249e-08
1.430000	1600088.095531	5.303549e-08
1.435000	1607657.346877	5.313754e-08
1.440000	1615229.302581	6.435715e-08
1.445000	1622803.876041	5.506877e-08
1.450000	1630381.037006	5.504030e-08
1.455000	1637960.721449	5.745762e-08
1.460000	1645542.899596	5.002918e-08
1.465000	1653127.514029	5.189751e-08
1.470000	1660714.497612	4.706135e-08
1.475000	1668303.892255	5.046519e-08
1.480000	1675895.586166	4.557532e-08
1.485000	1683489.560351	4.939761e-08
1.490000	1691085.784141	4.886175e-08
1.495000	1698684.264211	4.669737e-08
1.500000	1706284.889974	4.536607e-08
1.505000	1713887.659759	4.084136e-08
1.510000	1721492.509069	3.922329e-08
1.515000	1729099.429821	3.363977e-08
1.520000	1736708.415915	4.037330e-08
1.525000	1744319.393669	4.059447e-08
1.530000	1751932.384619	3.938543e-08
1.535000	1759547.287509	4.013699e-08
1.540000	1767164.140654	3.264884e-08
1.545000	1774782.858685	4.194803e-08
1.550000	1782403.446622	2.652663e-08
1.555000	1790025.900200	4.138052e-08
1.560000	1797650.150665	3.598159e-08
1.565000	1805276.222761	3.674822e-08
1.570000	1812904.093077	3.949582e-08
1.575000	1820533.712452	3.158398e-08
1.580000	1828165.039295	3.265662e-08
1.585000	1835798.054644	3.473914e-08
1.590000	1843432.799947	2.680786e-08
1.595000	1851069.213929	3.024932e-08
1.600000	1858707.287481	2.921472e-08
1.605000	1866347.039824	3.715122e-08
1.610000	1873988.415611	3.973226e-08
1.615000	1881631.448545	3.025685e-08
1.620000	1889276.054851	3.761578e-08
1.625000	1896922.247568	3.909167e-08
1.630000	1904570.008277	2.999186e-08
1.635000	1912219.309803	3.997125e-08
1.640000	1919870.113495	3.205642e-08
1.645000	1927522.409734	3.704492e-08
1.650000	1935176.126600	2.625996e-08
1.655000	1942831.296552	3.631865e-08
1.660000	1950487.907197	3.055392e-08
1.665000	1958145.865585	2.637491e-08
1.670000	1965805.202333	2.682830e-08
1.675000	1973465.888560	2.891640e-08
1.680000	1981127.856030	1.847869e-08
1.685000	1988791.065431	2.826692e-08
1.690000	1996455.552775	1.736653e-08
1.695000	2004121.224325	2.490317e-08
1.700000	2011788.054496	2.741979e-08
1.705000	2019456.037914	2.173874e-08
1.710000	2027125.112050	2.568359e-08
1.715000	2034795.294993	1.839577e-08
1.720000	2042466.537693	1.907972e-08
1.725000	2050138.768409	1.839766e-08
1.730000	2057812.005957	2.785933e-08
1.735000	2065486.223288	2.306357e-08
1.740000	2073161.379198	9.428244e-09
1.745000	2080837.459725	1.672462e-08
1.750000	2088514.397614	2.044385e-08
1.755000	2096192.213801	2.150204e-08
1.760000	2103870.850144	1.560730e-08
1.765000	2111550.257814	2.846048e-08
1.770000	2119230.427866	1.993129e-08
1.775000	2126911.346922	1.998039e-08
1.780000	2134592.948841	2.222468e-08
1.785000	2142275.244684	2.100766e-08
1.790000	2149958.183733	2.129922e-08
1.795000	2157641.757038	2.533317e-08
1.800000	2165325.920970	1.225207e-08
1.805000	2173010.619446	1.993162e-08
1.810000	2180695.844349	2.133679e-08
1.815000	2188381.561819	9.725476e-09
1.820000	2196067.736133	1.817039e-08
1.825000	2203754.313346	7.918110e-09
1.830000	2211441.283142	1.311269e-08
1.835000	2219128.604267	9.206041e-09
1.840000	2226816.208617	1.197367e-08
1.845000	2234504.103221	1.116629e-08
1.850000	2242192.308601	1.468512e-09
1.855000	2249880.767635	4.523520e-09
1.860000	2257569.434858	5.969473e-09
1.865000	2265258.322398	-1.999752e-11
1.870000	2272947.405387	1.002478e-08
1.875000	2280636.588945	5.659868e-09
1.880000	2288325.912901	2.373784e-09
1.885000	2296015.357767	-3.599345e-09
1.890000	2303704.830402	-3.616771e-09
1.895000	2311394.338887	1.620070e-09
1.900000	2319083.901068	7.919480e-09
1.905000	2326773.454994	-8.235017e-10
1.910000	2334463.005433	-3.526451e-10
1.915000	2342152.503464	2.709905e-09
1.920000	2349841.946677	-6.293580e-09
1.925000	2357531.342721	1.298276e-09
1.930000	2365220.663132	3.643790e-09
1.935000	2372909.929470	-7.751913e-09
1.940000	2380599.092857	7.604484e-10
1.945000	2388288.187517	-3.179264e-09
1.950000	2395977.159093	1.459450e-09
1.955000	2403666.054650	-3.844927e-09
1.960000	2411354.851433	8.692095e-09
1.965000	2419043.568442	2.528416e-09
1.970000	2426732.135499	1.721354e-09
1.975000	2434420.640730	1.070086e-09
1.980000	2442109.035472	6.556406e-09
1.985000	2449797.358287	-2.047194e-09
1.990000	2457485.576003	5.114527e-10
1.995000	2465173.665784	4.245942e-09
2.000000	2472861.662921	-3.019869e-09
2.005000	2480549.531902	-3.498925e-09
2.010000	2488237.278578	-1.643440e-09
2.015000	2495924.887459	2.091662e-09
2.020000	2503612.400826	-2.787565e-09
2.025000	2511299.742307	-5.487004e-09
2.030000	2518986.928717	4.313836e-09
2.035000	2526673.960983	-5.633486e-09
2.040000	2534360.817814	-4.435469e-09
2.045000	2542047.466747	3.642756e-09
2.050000	2549733.885307	3.978366e-09
2.055000	2557420.114807	-1.935882e-08
2.060000	2565106.091738	1.575967e-09
2.065000	2572791.754945	-7.401239e-09
2.070000	2580477.182438	-1.882137e-09
2.075000	2588162.345103	-9.384918e-09
2.080000	2595847.200816	-8.802789e-09
2.085000	2603531.737173	-3.941405e-09
2.090000	2611215.966159	-1.354974e-08
2.095000	2618899.874788	-7.591417e-09
2.100000	2626583.440456	-5.720066e-09
2.105000	2634266.668109	-9.784489e-09
2.110000	2641949.548116	-4.446155e-09
2.115000	2649632.072636	-5.623672e-10
2.120000	2657314.254760	-1.727449e-08
2.125000	2664996.062909	2.145147e-09
2.130000	2672677.475765	-2.316482e-09
2.135000	2680358.506467	-9.314682e-09
2.140000	2688039.171483	-5.284621e-09
2.145000	2695719.449281	-1.028997e-08
2.150000	2703399.308318	-9.422752e-09
2.155000	2711078.776228	-7.263203e-09
2.160000	2718757.810177	-9.215133e-09
2.165000	2726436.368005	-6.426146e-09
2.170000	2734114.502033	-9.002419e-09
2.175000	2741792.225823	-1.064709e-08
2.180000	2749469.448552	-5.499130e-09
2.185000	2757146.249667	-2.043156e-09
2.190000	2764822.587027	-1.215631e-08
2.195000	2772498.446757	-1.044580e-08
2.200000	2780173.834649	-4.674904e-09
2.205000	2787848.801693	-1.257621e-08
2.210000	2795523.249832	-1.532527e-08
2.215000	2803197.246632	-6.519106e-09
2.220000	2810870.840533	-6.384167e-09
2.225000	2818543.916575	-9.621831e-09
2.230000	2826216.561206	-1.017305e-08
2.235000	2833888.695185	-1.832726e-08
2.240000	2841560.357180	-3.010815e-09
2.245000	2849231.548659	-1.889956e-08
2.250000	2856902.227591	-1.209168e-08
2.255000	2864572.417328	-5.223319e-09
2.260000	2872242.113964	-7.398361e-09
2.265000	2879911.276287	-1.130050e-08
2.270000	2887579.931923	-1.337450e-08
2.275000	2895248.040069	-8.890667e-09
2.280000	2902915.623609	-1.268621e-08
2.285000	2910582.666092	-1.348630e-08
2.290000	2918249.136082	-1.791679e-08
2.295000	2925915.063437	-1.444827e-08
2.300000	2933580.383257	-1.861503e-08
2.305000	2941245.109201	-1.092575e-08
2.310000	2948909.221391	-1.192541e-08
2.315000	2956572.695527	-1.009788e-08
2.320000	2964235.528878	-2.271715e-08
2.325000	2971897.733284	-1.083414e-08
2.330000	2979559.275478	-1.101151e-08
2.335000	2987220.110099	-1.602973e-08
2.340000	2994880.246461	-9.787911e-09
2.345000	3002539.692663	-5.269933e-09
2.350000	3010198.378938	-1.311397e-08
2.355000	3017856.324612	-1.117943e-08
2.360000	3025513.467272	-2.033985e-08
2.365000	3033169.842051	-9.317112e-09
2.370000	3040825.389165	-1.705635e-08
2.375000	3048480.083777	-1.962433e-08
2.380000	3056133.929653	-1.708162e-08
2.385000	3063786.900063	-1.490205e-08
2.390000	3071438.937549	-1.181208e-08
2.395000	3079090.073510	-1.720943e-08
2.400000	3086740.270739	-2.191600e-08
2.405000	3094389.480910	-2.361516e-08
2.410000	3102037.719287	-2.245205e-08
2.415000	3109684.946584	-2.991826e-08
2.420000	3117331.144288	-2.336171e-08
2.425000	3124976.309240	-1.758188e-08
2.430000	3132620.379359	-1.669405e-08
2.435000	3140263.347076	-2.903524e-08
2.440000	3147905.166976	-2.711742e-08
2.445000	3155545.843527	-2.097204e-08
2.450000	3163185.314534	-2.476968e-08
2.455000	3170823.599140	-2.843817e-08
2.460000	3178460.630401	-2.758321e-08
2.465000	3186096.428134	-3.646667e-08
2.470000	3193730.963939	-2.126526e-08
2.475000	3201364.219359	-3.090369e-08
2.480000	3208996.184418	-2.391022e-08
2.485000	3216626.805558	-2.882531e-08
2.490000	3224256.112464	-2.946411e-08
2.495000	3231884.039522	-3.039255e-08
2.500000	3239510.627200	-2.444315e-08
2.505000	3247135.827775	-2.968462e-08
2.510000	3254759.597289	-3.515904e-08
2.515000	3262381.998876	-2.802635e-08
2.520000	3270002.935004	-2.590195e-08
2.525000	3277622.426573	-2.852328e-08
2.530000	3285240.478691	-3.434105e-08
2.535000	3292857.061613	-2.942830e-08
2.540000	3300472.163452	-2.913271e-08
2.545000	3308085.775821	-2.943221e-08
2.550000	3315697.908308	-3.296230e-08
2.555000	3323308.503974	-3.455917e-08
2.560000	3330917.599129	-2.521695e-08
2.565000	3338525.166416	-3.226329e-08
2.570000	3346131.211193	-3.550974e-08
2.575000	3353735.695846	-2.629583e-08
2.580000	3361338.616717	-2.868680e-08
2.585000	3368939.979259	-4.209332e-08
2.590000	3376539.766083	-2.836186e-08
2.595000	3384137.972747	-3.926820e-08
2.600000	3391734.576086	-2.902335e-08
2.605000	3399329.590686	-3.777400e-08
2.610000	3406922.989742	-3.128156e-08
2.615000	3414514.774482	-3.449205e-08
2.620000	3422104.965695	-3.952144e-08
2.625000	3429693.548614	-4.222470e-08
2.630000	3437280.556515	-3.788971e-08
2.635000	3444865.931277	-4.044854e-08
2.640000	3452449.721421	-3.431469e-08
2.645000	3460031.887094	-3.737115e-08
2.650000	3467612.428457	-3.494325e-08
2.655000	3475191.348451	-3.853909e-08
2.660000	3482768.643693	-3.404951e-08
2.665000	3490344.318063	-3.456316e-08
2.670000	3497918.393676	-4.046041e-08
2.675000	3505490.889898	-4.157510e-08
2.680000	3513061.775729	-4.278614e-08
2.685000	3520631.095070	-3.935767e-08
2.690000	3528198.844828	-4.018451e-08
2.695000	3535765.005790	-3.159253e-08
2.700000	3543329.593969	-3.724198e-08
2.705000	3550892.622663	-4.221507e-08
2.710000	3558454.073822	-4.325470e-08
2.715000	3566013.941726	-3.817602e-08
2.720000	3573572.247522	-3.432357e-08
2.725000	3581128.970110	-4.581083e-08
2.730000	3588684.140810	-3.288057e-08
2.735000	3596237.734752	-2.729291e-08
2.740000	3603789.760847	-3.631473e-08
2.745000	3611340.189226	-2.605345e-08
2.750000	3618889.080602	-4.007221e-08
2.755000	3626436.363981	-4.198747e-08
2.760000	3633982.124984	-4.382384e-08
2.765000	3641526.329607	-3.596190e-08
2.770000	3649069.004349	-3.918782e-08
2.775000	3656610.150582	-4.603298e-08
2.780000	3664149.750298	-3.774708e-08
2.785000	3671687.825569	-3.989394e-08
2.790000	3679224.424713	-3.611855e-08
2.795000	3686759.470847	-3.925686e-08
2.800000	3694293.016995	-3.945402e-08
2.805000	3701825.061911	-3.906393e-08
2.810000	3709355.634055	-4.369450e-08
2.815000	3716884.675246	-3.934924e-08
2.820000	3724412.261406	-3.197031e-08
2.825000	3731938.362003	-4.372563e-08
2.830000	3739463.003632	-4.165942e-08
2.835000	3746986.166742	-3.449688e-08
2.840000	3754507.906141	-3.925480e-08
2.845000	3762028.178207	-4.342816e-08
2.850000	3769546.969381	-4.219631e-08
2.855000	3777064.369891	-4.208912e-08
2.860000	3784580.339026	-3.920475e-08
2.865000	3792094.901079	-3.573496e-08
2.870000	3799608.067160	-4.078098e-08
2.875000	3807119.837150	-3.648570e-08
2.880000	3814630.258758	-3.890329e-08
2.885000	3822139.263820	-3.791317e-08
2.890000	3829646.907525	-3.237396e-08
2.895000	3837153.204393	-3.717638e-08
2.900000	3844658.130951	-3.142446e-08
2.905000	3852161.757390	-3.771173e-08
2.910000	3859663.956355	-4.020852e-08
2.915000	3867164.867819	-4.023805e-08
2.920000	3874664.387687	-3.502358e-08
2.925000	3882162.573885	-4.171579e-08
2.930000	3889659.420903	-3.315619e-08
2.935000	3897154.939103	-3.552593e-08
2.940000	3904649.107774	-3.478139e-08
2.945000	3912141.967914	-3.498752e-08
2.950000	3919633.526000	-3.375519e-08
2.955000	3927123.741904	-3.499506e-08
2.960000	3934612.676297	-4.647804e-08
2.965000	3942100.293306	-3.277873e-08
2.970000	3949586.620308	-4.031588e-08
2.975000	3957071.687449	-3.717453e-08
2.980000	3964555.487768	-3.169939e-08
2.985000	3972038.039210	-4.535343e-08
2.990000	3979519.361105	-3.895921e-08
2.995000	3986999.451179	-3.025199e-08
3.000000	3994478.295217	-4.366101e-08
3.005000	4001955.905443	-3.619174e-08
3.010000	4009432.300615	-4.311446e-08
3.015000	4016907.452705	-3.857072e-08
3.020000	4024381.402417	-3.894809e-08
3.025000	4031854.146787	-3.451972e-08
3.030000	4039325.737488	-3.045285e-08
3.035000	4046796.101380	-3.679292e-08
3.040000	4054265.248723	-3.265946e-08
3.045000	4061733.197759	-3.234251e-08
3.050000	4069199.956402	-3.515980e-08
3.055000	4076665.524379	-3.821613e-08
3.060000	4084129.871068	-3.231856e-08
3.065000	4091592.988339	-3.918965e-08
3.070000	4099054.986197	-3.263690e-08
3.075000	4106515.815326	-3.166755e-08
3.080000	4113975.450545	-3.144619e-08
3.085000	4121433.892881	-3.303664e-08
3.090000	4128891.212420	-3.306429e-08
3.095000	4136347.389229	-3.539607e-08
3.100000	4143802.398942	-2.731191e-08
3.105000	4151256.197246	-3.468679e-08
3.110000	4158708.863470	-3.361737e-08
3.115000	4166160.387028	-3.121850e-08
3.120000	4173610.736007	-2.381093e-08
3.125000	4181059.903295	-2.946522e-08
3.130000	4188507.926639	-2.098018e-08
3.135000	4195954.787149	-3.226471e-08
3.140000	4203400.483812	-3.626131e-08
3.145000	4210845.003193	-3.123270e-08
3.150000	4218288.366837	-2.888984e-08
3.155000	4225730.500858	-2.884916e-08
3.160000	4233171.445997	-3.471634e-08
3.165000	4240611.158932	-3.213715e-08
3.170000	4248049.671376	-2.635311e-08
3.175000	4255486.950078	-3.409966e-08
3.180000	4262922.991788	-3.580525e-08
3.185000	4270357.843997	-2.795135e-08
3.190000	4277791.494099	-3.608547e-08
3.195000	4285223.923664	-3.546704e-08
3.200000	4292655.086403	-3.226958e-08
3.205000	4300085.036436	-3.171364e-08
3.210000	4307513.721464	-2.711340e-08
3.215000	4314941.195671	-4.019475e-08
3.220000	4322367.427196	-3.337771e-08
3.225000	4329792.416194	-2.651496e-08
3.230000	4337216.146660	-2.767814e-08
3.235000	4344638.624104	-3.738184e-08
3.240000	4352059.854686	-2.822985e-08
3.245000	4359479.858969	-2.910231e-08
3.250000	4366898.638835	-2.773219e-08
3.255000	4374316.172445	-3.836630e-08
3.260000	4381732.443558	-3.014021e-08
3.265000	4389147.472269	-2.888624e-08
3.270000	4396561.217709	-2.791631e-08
3.275000	4403973.645806	-2.875929e-08
3.280000	4411384.796716	-2.898882e-08
3.285000	4418794.672665	-3.320874e-08
3.290000	4426203.244624	-2.810842e-08
3.295000	4433610.543661	-2.799451e-08
3.300000	4441016.531533	-3.575171e-08
3.305000	4448421.248334	-2.736442e-08
3.310000	4455824.685282	-3.261808e-08
3.315000	4463226.862478	-3.572543e-08
3.320000	4470627.774429	-3.294784e-08
3.325000	4478027.401723	-2.862012e-08
3.330000	4485425.779377	-3.614082e-08
3.335000	4492822.879426	-2.482543e-08
3.340000	4500218.747734	-2.911542e-08
3.345000	4507613.305610	-2.793876e-08
3.350000	4515006.636257	-2.907126e-08
3.355000	4522398.702344	-3.758410e-08
3.360000	4529789.476819	-2.490323e-08
3.365000	4537178.984582	-2.250571e-08
3.370000	4544567.226831	-1.279066e-08
3.375000	4551954.171657	-3.477205e-08
3.380000	4559339.813876	-2.730562e-08
3.385000	4566724.206661	-2.562715e-08
3.390000	4574107.322709	-3.004852e-08
3.395000	4581489.118485	-2.080343e-08
3.400000	4588869.665113	-2.464125e-08
3.405000	4596248.979813	-2.638533e-08
3.410000	4603627.017804	-2.256501e-08
3.415000	4611003.818874	-3.557883e-08
3.420000	4618379.338273	-3.348297e-08
3.425000	4625753.598785	-1.980682e-08
3.430000	4633126.631904	-2.608589e-08
3.435000	4640498.412818	-2.486629e-08
3.440000	4647868.932277	-2.538226e-08
3.445000	4655238.168974	-2.494967e-08
3.450000	4662606.166005	-2.219279e-08
3.455000	4669972.913838	-1.933025e-08
3.460000	4677338.364956	-2.135665e-08
3.465000	4684702.548037	-2.449731e-08
3.470000	4692065.477425	-2.856206e-08
3.475000	4699427.124270	-2.428091e-08
3.480000	4706787.533483	-2.146605e-08
3.485000	4714146.645251	-2.514680e-08
3.490000	4721504.485801	-2.782876e-08
3.495000	4728861.019352	-1.875652e-08
3.500000	4736216.244148	-2.919315e-08
3.505000	4743570.160695	-2.676724e-08
3.510000	4750922.791904	-2.010996e-08
3.515000	4758274.147627	-2.114634e-08
3.520000	4765624.189458	-2.108985e-08
3.525000	4772972.933597	-2.368427e-08
3.530000	4780320.367285	-1.820546e-08
3.535000	4787666.493741	-2.525551e-08
3.540000	4795011.309286	-1.811315e-08
3.545000	4802354.809564	-1.817681e-08
3.550000	4809696.994918	-1.819763e-08
3.555000	4817037.876919	-1.925056e-08
3.560000	4824377.443474	-2.694732e-08
3.565000	4831715.699216	-1.807980e-08
3.570000	4839052.608681	-2.535827e-08
3.575000	4846388.251081	-1.944675e-08
3.580000	4853722.581326	-2.151125e-08
3.585000	4861055.627048	-2.632676e-08
3.590000	4868387.380550	-2.294949e-08
3.595000	4875717.854156	-1.621224e-08
3.600000	4883047.050467	-1.542808e-08
3.605000	4890374.976149	-2.055221e-08
3.610000	4897701.629536	-2.608081e-08
3.615000	4905026.996192	-2.609786e-08
3.620000	4912351.092743	-1.691288e-08
3.625000	4919673.922640	-1.319616e-08
3.630000	4926995.490706	-1.483377e-08
3.635000	4934315.812176	-1.591123e-08
3.640000	4941634.879981	-1.322426e-08
3.645000	4948952.687155	-1.384132e-08
3.650000	4956269.257243	-2.174627e-08
3.655000	4963584.592254	-1.608283e-08
3.660000	4970898.700928	-2.110971e-08
3.665000	4978211.546873	-2.154929e-08
3.670000	4985523.152473	-1.315558e-08
3.675000	4992833.565006	-2.111668e-08
3.680000	5000142.742160	-2.260242e-08
3.685000	5007450.738552	-2.338232e-08
3.690000	5014757.531865	-2.159430e-08
3.695000	5022063.167366	-1.231084e-08
3.700000	5029367.590348	-2.547738e-08
3.705000	5036670.858154	-1.800650e-08
3.710000	5043972.951702	-2.452329e-08
3.715000	5051273.885161	-1.771264e-08
3.720000	5058573.698372	-2.957925e-08
3.725000	5065872.340020	-2.472331e-08
3.730000	5073169.838687	-1.878077e-08
3.735000	5080466.238408	-2.797421e-08
3.740000	5087761.475174	-3.051747e-08
3.745000	5095055.554708	-1.604903e-08
3.750000	5102348.567278	-2.631665e-08
3.755000	5109640.420120	-2.920629e-08
3.760000	5116931.098786	-2.475137e-08
3.765000	5124220.626543	-2.649914e-08
3.770000	5131508.998824	-2.175288e-08
3.775000	5138796.185672	-2.335222e-08
3.780000	5146082.239421	-2.035869e-08
3.785000	5153367.102929	-2.573279e-08
3.790000	5160650.781849	-2.475064e-08
3.795000	5167933.314335	-1.894238e-08
3.800000	5175214.682058	-2.819581e-08
3.805000	5182494.880955	-2.055868e-08
3.810000	5189773.900577	-2.289214e-08
3.815000	5197051.709121	-2.466542e-08
3.820000	5204328.341094	-2.384745e-08
3.825000	5211603.822344	-2.695657e-08
3.830000	5218878.143507	-2.284543e-08
3.835000	5226151.229442	-2.908816e-08
3.840000	5233423.162034	-2.303783e-08
3.845000	5240693.918377	-2.266426e-08
3.850000	5247963.400422	-2.285202e-08
3.855000	5255231.744401	-2.287893e-08
3.860000	5262498.830570	-1.779766e-08
3.865000	5269764.707757	-2.667423e-08
3.870000	5277029.359628	-2.562896e-08
3.875000	5284292.783645	-2.350469e-08
3.880000	5291555.020324	-2.715745e-08
3.885000	5298816.033151	-2.436353e-08
3.890000	5306075.847592	-2.467306e-08
3.895000	5313334.432850	-2.144126e-08
3.900000	5320591.802351	-2.133717e-08
3.905000	5327847.983664	-2.335672e-08
3.910000	5335102.990837	-2.350540e-08
3.915000	5342356.817728	-1.749056e-08
3.920000	5349609.462070	-2.729861e-08
3.925000	5356860.924511	-1.989725e-08
3.930000	5364111.212454	-2.475755e-08
3.935000	5371360.307141	-2.206096e-08
3.940000	5378608.232501	-2.088379e-08
3.945000	5385855.023644	-2.194313e-08
3.950000	5393100.632669	-2.098953e-08
3.955000	5400345.123645	-3.037081e-08
3.960000	5407588.425837	-2.297027e-08
3.965000	5414830.595744	-2.163233e-08
3.970000	5422071.648229	-2.498977e-08
3.975000	5429311.548113	-2.303417e-08
3.980000	5436550.319712	-3.085875e-08
3.985000	5443787.982823	-2.247961e-08
3.990000	5451024.480804	-1.918130e-08
3.995000	5458259.874992	-1.874134e-08
4.000000	5465494.167321	-2.812035e-08
4.005000	5472727.336276	-2.077676e-08
4.010000	5479959.446678	-2.503346e-08
4.015000	5487190.417851	-1.094917e-08
4.020000	5494420.321203	-2.797144e-08
4.025000	5501649.149281	-2.764037e-08
4.030000	5508876.849700	-2.119522e-08