0.000000	0.000000	6.097465e-06
0.005000	49.982265	1.470927e-06
0.010000	179.896561	1.698448e-06
0.015000	393.367201	1.686340e-06
0.020000	691.461285	1.653778e-06
0.025000	1072.562678	1.628356e-06
0.030000	1535.542046	1.613426e-06
0.035000	2079.585769	1.598731e-06
0.040000	2703.773544	1.577534e-06
0.045000	3407.246841	1.558715e-06
0.050000	4189.079786	1.541366e-06
0.055000	5048.370398	1.529657e-06
0.060000	5984.323796	1.513764e-06
0.065000	6995.983868	1.499316e-06
0.070000	8082.551557	1.477566e-06
0.075000	9243.128334	1.460747e-06
0.080000	10476.907310	1.448270e-06
0.085000	11783.032677	1.428639e-06
0.090000	13160.659394	1.403756e-06
0.095000	14609.004009	1.386040e-06
0.100000	16127.215807	1.376381e-06
0.105000	17714.510702	1.353166e-06
0.110000	19370.117092	1.349870e-06
0.115000	21093.221034	1.329087e-06
0.120000	22883.030987	1.309156e-06
0.125000	24738.832771	1.303345e-06
0.130000	26659.790230	1.274997e-06
0.135000	28645.152039	1.262179e-06
0.140000	30694.207918	1.245941e-06
0.145000	32806.245621	1.238190e-06
0.150000	34980.487645	1.233460e-06
0.155000	37216.228660	1.201533e-06
0.160000	39512.729042	1.204270e-06
0.165000	41869.307663	1.182155e-06
0.170000	44285.260663	1.177757e-06
0.175000	46759.884647	1.156136e-06
0.180000	49292.525064	1.141207e-06
0.185000	51882.419706	1.126321e-06
0.190000	54529.020951	1.119181e-06
0.195000	57231.611797	1.107265e-06
0.200000	59989.517624	1.081888e-06
0.205000	62802.113208	1.078708e-06
0.210000	65668.762164	1.065654e-06
0.215000	68588.868101	1.063667e-06
0.220000	71561.739694	1.037887e-06
0.225000	74586.804454	1.032713e-06
0.230000	77663.425499	1.015092e-06
0.235000	80791.029285	1.003301e-06
0.240000	83968.958571	9.928352e-07
0.245000	87196.694848	9.841812e-07
0.250000	90473.575564	9.654546e-07
0.255000	93799.073008	9.586578e-07
0.260000	97172.626143	9.384734e-07
0.265000	100593.639984	9.355790e-07
0.270000	104061.542374	9.259737e-07
0.275000	107575.810615	9.086513e-07
0.280000	111135.898123	8.945817e-07
0.285000	114741.232224	8.869201e-07
0.290000	118391.315057	8.753430e-07
0.295000	122085.602731	8.723409e-07
0.300000	125823.587624	8.518519e-07
0.305000	129604.760472	8.530493e-07
0.310000	133428.577653	8.339937e-07
0.315000	137294.621772	8.235509e-07
0.320000	141202.370524	8.175261e-07
0.325000	145151.307708	8.020438e-07
0.330000	149141.001474	8.003616e-07
0.335000	153170.942892	7.883583e-07
0.340000	157240.689461	7.865450e-07
0.345000	161349.795664	7.732973e-07
0.350000	165497.800193	7.565703e-07
0.355000	169684.233375	7.511997e-07
0.360000	173908.665772	7.408551e-07
0.365000	178170.651880	7.375838e-07
0.370000	182469.741892	7.392451e-07
0.375000	186805.522540	7.218520e-07
0.380000	191177.555481	7.174297e-07
0.385000	195585.402480	7.030734e-07
0.390000	200028.645686	6.924051e-07
0.395000	204506.888581	6.871686e-07
0.400000	209019.710503	6.764737e-07
0.405000	213566.708156	6.699284e-07
0.410000	218147.526295	6.609194e-07
0.415000	222761.702701	6.477987e-07
0.420000	227408.875334	6.554037e-07
0.425000	232088.733910	6.455047e-07
0.430000	236800.808573	6.321723e-07
0.435000	241544.708318	6.266260e-07
0.440000	246320.153098	6.240302e-07
0.445000	251126.732943	6.135738e-07
0.450000	255964.065271	5.994829e-07
0.455000	260831.834730	5.899775e-07
0.460000	265729.637211	5.815505e-07
0.465000	270657.159679	5.793429e-07
0.470000	275614.079152	5.794812e-07
0.475000	280600.029122	5.629243e-07
0.480000	285614.647381	5.630772e-07
0.485000	290657.637977	5.563985e-07
0.490000	295728.680254	5.440800e-07
0.495000	300827.422948	5.450352e-07
0.500000	305953.526057	5.335161e-07
0.505000	311106.723648	5.193712e-07
0.510000	316286.657584	5.241416e-07
0.515000	321493.029465	5.231944e-07
0.520000	326725.538906	5.095476e-07
0.525000	331983.862671	5.007939e-07
0.530000	337267.731404	4.922413e-07
0.535000	342576.825902	4.976533e-07
0.540000	347910.850596	4.804964e-07
0.545000	353269.533217	4.800788e-07
0.550000	358652.581065	4.683694e-07
0.555000	364059.717920	4.611074e-07
0.560000	369490.641376	4.713585e-07
0.565000	374945.088170	4.540467e-07
0.570000	380422.793789	4.506137e-07
0.575000	385923.432884	4.433009e-07
0.580000	391446.830377	4.338674e-07
0.585000	396992.655287	4.358167e-07
0.590000	402560.617333	4.287388e-07
0.595000	408150.485637	4.219389e-07
0.600000	413761.977521	4.179536e-07
0.605000	419394.849140	4.129633e-07
0.610000	425048.829552	4.131479e-07
0.615000	430723.642635	4.011039e-07
0.620000	436419.043125	3.959972e-07
0.625000	442134.772257	3.964491e-07
0.630000	447870.601641	3.828835e-07
0.635000	453626.296274	3.893938e-07
0.640000	459401.612813	3.738369e-07
0.645000	465196.313909	3.744824e-07
0.650000	471010.163636	3.770907e-07
0.655000	476842.898198	3.677848e-07
0.660000	482694.340480	3.588431e-07
0.665000	488564.266808	3.568307e-07
0.670000	494452.403828	3.475952e-07
0.675000	500358.600833	3.473670e-07
0.680000	506282.587910	3.414451e-07
0.685000	512224.222591	3.347737e-07
0.690000	518183.217462	3.334245e-07
0.695000	524159.390009	3.311970e-07
0.700000	530152.524805	3.340326e-07
0.705000	536162.426024	3.252445e-07
0.710000	542188.894712	3.121595e-07
0.715000	548231.704560	3.054771e-07
0.720000	554290.655588	3.098327e-07
0.725000	560365.599274	3.153918e-07
0.730000	566456.322550	3.009507e-07
0.735000	572562.563720	2.941328e-07
0.740000	578684.231284	2.859311e-07
0.745000	584821.111384	2.792334e-07
0.750000	590972.994064	2.923122e-07
0.755000	597139.704918	2.828977e-07
0.760000	603321.144169	2.812144e-07
0.765000	609517.060055	2.812073e-07
0.770000	615727.282745	2.808857e-07
0.775000	621951.658770	2.727016e-07
0.780000	628190.019472	2.737124e-07
0.785000	634442.179619	2.662182e-07
0.790000	640707.961911	2.660634e-07
0.795000	646987.209310	2.586604e-07
0.800000	653279.779117	2.657687e-07
0.805000	659585.509343	2.539715e-07
0.810000	665904.202711	2.595220e-07
0.815000	672235.736772	2.541987e-07
0.820000	678579.966992	2.472959e-07
0.825000	684936.728398	2.475468e-07
0.830000	691305.850790	2.423378e-07
0.835000	697687.211592	2.448771e-07
0.840000	704080.643283	2.361159e-07
0.845000	710485.967791	2.391902e-07
0.850000	716903.017569	2.348253e-07
0.855000	723331.725698	2.335531e-07
0.860000	729771.913314	2.269784e-07
0.865000	736223.465193	2.220236e-07
0.870000	742686.221569	2.256364e-07
0.875000	749160.038064	2.145565e-07
0.880000	755644.809979	2.172622e-07
0.885000	762140.386736	2.185339e-07
0.890000	768646.646674	2.098768e-07
0.895000	775163.482894	2.139055e-07
0.900000	781690.712691	1.968897e-07
0.905000	788228.231142	2.060477e-07
0.910000	794775.939984	1.998962e-07
0.915000	801333.685969	2.043297e-07
0.920000	807901.335271	1.906162e-07
0.925000	814478.742230	1.846140e-07
0.930000	821065.789891	1.915554e-07
0.935000	827662.416297	1.838834e-07
0.940000	834268.474170	1.843182e-07
0.945000	840883.864854	1.809656e-07
0.950000	847508.467755	1.829099e-07
0.955000	854142.165019	1.807892e-07
0.960000	860784.846981	1.804273e-07
0.965000	867436.388983	1.752697e-07
0.970000	874096.685763	1.711633e-07
0.975000	880765.626854	1.717391e-07
0.980000	887443.094101	1.656568e-07
0.985000	894128.990110	1.749736e-07
0.990000	900823.181179	1.608322e-07
0.995000	907525.552744	1.644226e-07
1.000000	914236.067323	1.562616e-07
1.005000	920954.578201	1.496820e-07
1.010000	927680.941501	1.515832e-07
1.015000	934415.089876	1.519120e-07
1.020000	941156.928661	1.496138e-07
1.025000	947906.359370	1.516414e-07
1.030000	954663.279515	1.426690e-07
1.035000	961427.586182	1.396824e-07
1.040000	968199.199410	1.404770e-07
1.045000	974978.012227	1.419308e-07
1.050000	981763.924902	1.339335e-07
1.055000	988556.892968	1.330773e-07
1.060000	995356.775952	1.403202e-07
1.065000	1002163.518940	1.355916e-07
1.070000	1008976.978031	1.348554e-07
1.075000	1015797.062182	1.289789e-07
1.080000	1022623.702906	1.236120e-07
1.085000	1029456.798080	1.234918e-07
1.090000	1036296.274036	1.159964e-07
1.095000	1043142.031448	1.208379e-07
1.100000	1049994.016396	1.217982e-07
1.105000	1056852.131985	1.296497e-07
1.110000	1063716.303306	1.222327e-07
1.115000	1070586.404591	1.148257e-07
1.120000	1077462.406144	1.136738e-07
1.125000	1084344.210514	1.190413e-07
1.130000	1091231.713336	1.084225e-07
1.135000	1098124.876336	1.133587e-07
1.140000	1105023.579207	1.073439e-07
1.145000	1111927.792429	1.112765e-07
1.150000	1118837.399579	1.009148e-07
1.155000	1125752.429148	9.504072e-08
1.160000	1132672.733756	9.453653e-08
1.165000	1139598.249798	9.412608e-08
1.170000	1146528.893923	8.909828e-08
1.175000	1153464.601272	9.784410e-08
1.180000	1160405.306077	1.010150e-07
1.185000	1167350.956237	9.080056e-08
1.190000	1174301.476101	8.867174e-08
1.195000	1181256.823097	1.000235e-07
1.200000	1188216.961394	8.602151e-08
1.205000	1195181.772636	8.623821e-08
1.210000	1202151.257603	9.037018e-08
1.215000	1209125.320694	9.217635e-08
1.220000	1216103.917286	8.639159e-08
1.225000	1223087.034287	8.951915e-08
1.230000	1230074.561091	8.583662e-08
1.235000	1237066.502277	7.102367e-08
1.240000	1244062.744358	7.683022e-08
1.245000	1251063.256574	7.770721e-08
1.250000	1258067.996032	7.056194e-08
1.255000	1265076.850499	7.092932e-08
1.260000	1272089.850728	7.751862e-08
1.265000	1279106.961095	7.897491e-08
1.270000	1286128.012217	7.172411e-08
1.275000	1293153.097831	7.784253e-08
1.280000	1300182.129398	6.540955e-08
1.285000	1307215.045976	6.265125e-08
1.290000	1314251.846539	6.817265e-08
1.295000	1321292.417144	8.655385e-08
1.300000	1328336.792046	6.854095e-08
1.305000	1335384.862606	6.935590e-08
1.310000	1342436.648916	7.187055e-08
1.315000	1349492.069495	7.589741e-08
1.320000	1356551.132528	6.911668e-08
1.325000	1363613.773037	7.009986e-08
1.330000	1370679.994997	7.370366e-08
1.335000	1377749.717619	7.257581e-08
1.340000	1384822.978641	6.531837e-08
1.345000	1391899.681132	7.796992e-08
1.350000	1398979.817407	6.926692e-08
1.355000	1406063.382647	6.573388e-08
1.360000	1413150.328143	6.560076e-08
1.365000	1420240.629006	7.677564e-08
1.370000	1427334.261284	7.152914e-08
1.375000	1434431.241454	7.152151e-08
1.380000	1441531.485246	6.622604e-08
1.385000	1448634.985424	6.362718e-08
1.390000	1455741.736059	6.961384e-08
1.395000	1462851.674008	6.474103e-08
1.400000	1469964.809244	6.202328e-08
1.405000	1477081.126717	6.361733e-08
1.410000	1484200.604512	6.828146e-08
1.415000	1491323.182748	6.794094e-08
1.420000	1498448.845272	7.367289e-08
1.425000	1505577.616641	6.625811e-08
1.430000	1512709.412200	7.192403e-08
1.435000	1519844.230887	7.174349e-08
1.440000	1526982.017380	6.727039e-08
1.445000	1534122.748160	6.168824e-08
1.450000	1541266.426967	6.811717e-08
1.455000	1548412.994214	5.957481e-08
1.460000	1555562.401620	5.821791e-08
1.465000	1562714.632495	6.743648e-08
1.470000	1569869.673630	4.815523e-08
1.475000	1577027.449336	6.165916e-08
1.480000	1584188.013925	5.442066e-08
1.485000	1591351.312722	5.006883e-08
1.490000	1598517.266328	5.578203e-08
1.495000	1605685.880696	5.653939e-08
1.500000	1612857.141575	5.957000e-08
1.505000	1620030.979904	5.394766e-08
1.510000	1627207.292456	5.160694e-08
1.515000	1634386.057019	5.071045e-08
1.520000	1641567.258601	5.390626e-08
1.525000	1648750.888966	4.264505e-08
1.530000	1655936.883176	5.839329e-08
1.535000	1663125.273812	4.598185e-08
1.540000	1670316.017662	4.860954e-08
1.545000	1677509.072176	4.770807e-08
1.550000	1684704.369067	4.655900e-08
1.555000	1691901.882631	5.059259e-08
1.560000	1699101.610833	5.172567e-08
1.565000	1706303.504988	5.041507e-08
1.570000	1713507.546031	5.013663e-08
1.575000	1720713.699367	5.019942e-08
1.580000	1727921.877784	4.595132e-08
1.585000	1735132.137945	4.267504e-08
1.590000	1742344.382825	5.097960e-08
1.595000	1749558.686739	4.681881e-08
1.600000	1756774.983453	4.658728e-08
1.605000	1763993.264765	4.140646e-08
1.610000	1771213.518904	4.860283e-08
1.615000	1778435.717732	3.861024e-08
1.620000	1785659.839581	4.261823e-08
1.625000	1792885.909002	3.836765e-08
1.630000	1800113.886080	4.992074e-08
1.635000	1807343.795802	4.227973e-08
1.640000	1814575.591623	3.755793e-08
1.645000	1821809.180463	4.433662e-08
1.650000	1829044.599082	3.791339e-08
1.655000	1836281.882654	4.562178e-08
1.660000	1843521.013173	4.456099e-08
1.665000	1850761.903182	3.760782e-08
1.670000	1858004.537453	3.584026e-08
1.675000	1865248.984233	4.244548e-08
1.680000	1872495.186143	3.798827e-08
1.685000	1879743.036503	3.800827e-08
1.690000	1886992.556137	3.397109e-08
1.695000	1894243.805325	3.568271e-08
1.700000	1901496.737807	3.461867e-08
1.705000	1908751.293756	3.568919e-08
1.710000	1916007.483637	4.063867e-08
1.715000	1923265.223062	3.771915e-08
1.720000	1930524.473682	2.834932e-08
1.725000	1937785.284726	2.578802e-08
1.730000	1945047.659300	3.159547e-08
1.735000	1952311.565107	2.591664e-08
1.740000	1959576.912359	3.376909e-08
1.745000	1966843.769835	3.696091e-08
1.750000	1974112.075627	2.850867e-08
1.755000	1981381.789250	3.647003e-08
1.760000	1988652.930722	3.111380e-08
1.765000	1995925.417056	2.519232e-08
1.770000	2003199.255799	2.777888e-08
1.775000	2010474.444328	1.473528e-08
1.780000	2017750.909945	2.641325e-08
1.785000	2025028.618279	1.916639e-08
1.790000	2032307.566197	1.904459e-08
1.795000	2039587.685623	2.696148e-08
1.800000	2046869.006050	2.703230e-08
1.805000	2054151.485741	2.376538e-08
1.810000	2061435.052607	2.082041e-08
1.815000	2068719.732079	2.122719e-08
1.820000	2076005.411271	2.214645e-08
1.825000	2083292.119533	1.846970e-08
1.830000	2090579.856316	2.369957e-08
1.835000	2097868.492368	2.656618e-08
1.840000	2105158.015982	1.090304e-08
1.845000	2112448.472364	1.544571e-08
1.850000	2119739.818755	7.931112e-09
1.855000	2127032.013392	1.154368e-08
1.860000	2134324.938862	1.441465e-08
1.865000	2141618.677354	8.343646e-09
1.870000	2148913.202244	1.346530e-08
1.875000	2156208.432903	6.469765e-09
1.880000	2163504.425508	1.708099e-08
1.885000	2170801.160263	1.215331e-08
1.890000	2178098.526917	1.651702e-08
1.895000	2185396.601007	7.684891e-09
1.900000	2192695.223020	1.140427e-08
1.905000	2199994.450590	6.254320e-09
1.910000	2207294.234409	7.887745e-09
1.915000	2214594.581484	7.602588e-09
1.920000	2221895.427416	5.139277e-09
1.925000	2229196.747480	1.245521e-09
1.930000	2236498.442472	4.079561e-09
1.935000	2243800.471595	5.311510e-09
1.940000	2251102.778514	2.031256e-09
1.945000	2258405.320461	-5.408856e-10
1.950000	2265708.104487	1.087534e-08
1.955000	2273011.092775	-8.291446e-09
1.960000	2280314.229075	5.556481e-10
1.965000	2287617.478426	-5.941248e-09
1.970000	2294920.808522	3.944743e-09
1.975000	2302224.167329	7.964348e-11
1.980000	2309527.540860	6.584432e-09
1.985000	2316830.905025	-1.951447e-09
1.990000	2324134.126185	-8.473368e-09
1.995000	2331437.314134	-2.439592e-09
2.000000	2338740.371692	1.157220e-09
2.005000	2346043.289580	3.546307e-09
2.010000	2353346.093057	-3.188713e-09
2.015000	2360648.678216	-2.720597e-09
2.020000	2367951.072505	-6.626369e-09
2.025000	2375253.224765	-2.315965e-09
2.030000	2382555.032553	6.225626e-10
2.035000	2389856.593316	2.532872e-10
2.040000	2397157.828722	-2.445091e-09
2.045000	2404458.707768	2.510323e-09
2.050000	2411759.188117	-1.292140e-08
2.055000	2419059.221062	-3.119331e-09
2.060000	2426358.890220	-8.643247e-09
2.065000	2433658.129084	-1.069652e-08
2.070000	2440956.860932	-1.458179e-08
2.075000	2448255.107480	-4.040428e-09
2.080000	2455552.936412	-1.286816e-08
2.085000	2462850.246506	-1.227164e-08
2.090000	2470147.018889	-9.504720e-09
2.095000	2477443.297196	-1.289022e-08
2.100000	2484739.066944	-7.151459e-09
2.105000	2492034.304612	-1.213000e-08
2.110000	2499329.000823	-2.222651e-08
2.115000	2506623.093680	-8.059750e-09
2.120000	2513916.552315	-1.037726e-08
2.125000	2521209.457518	-3.797887e-09
2.130000	2528501.703679	-1.228485e-08
2.135000	2535793.305355	-1.469429e-08
2.140000	2543084.160921	-1.234529e-08
2.145000	2550374.292022	-1.827952e-08
2.150000	2557663.776105	-1.181670e-08
2.155000	2564952.472782	-1.585954e-08
2.160000	2572240.389422	-1.909483e-08
2.165000	2579527.516113	-1.601343e-08
2.170000	2586813.881242	-1.927959e-08
2.175000	2594099.465067	-1.037258e-08
2.180000	2601384.194521	-9.776422e-09
2.185000	2608668.110764	-1.235820e-08
2.190000	2615951.172516	-1.290954e-08
2.195000	2623233.409341	-1.587241e-08
2.200000	2630514.780574	-9.748958e-09
2.205000	2637795.303202	-1.595413e-08
2.210000	2645074.925696	-1.646853e-08
2.215000	2652353.611297	-2.133579e-08
2.220000	2659631.391068	-1.319799e-08
2.225000	2666908.249845	-2.149524e-08
2.230000	2674184.134339	-1.860711e-08
2.235000	2681459.077826	-1.571668e-08
2.240000	2688733.089496	-1.696492e-08
2.245000	2696006.155845	-1.931266e-08
2.250000	2703278.277135	-2.046262e-08
2.255000	2710549.391576	-1.503431e-08
2.260000	2717819.566636	-1.863683e-08
2.265000	2725088.826644	-1.188303e-08
2.270000	2732357.060343	-2.247895e-08
2.275000	2739624.361357	-1.940334e-08
2.280000	2746890.656826	-1.010012e-08
2.285000	2754155.993054	-1.500429e-08
2.290000	2761420.291492	-1.393874e-08
2.295000	2768683.561413	-1.702058e-08
2.300000	2775945.857047	-1.730894e-08
2.305000	2783207.102698	-2.565937e-08
2.310000	2790467.388809	-2.283715e-08
2.315000	2797726.638146	-1.302503e-08
2.320000	2804984.867812	-2.165094e-08
2.325000	2812242.116696	-1.448117e-08
2.330000	2819498.358937	-1.772497e-08
2.335000	2826753.530665	-2.172379e-08
2.340000	2834007.785528	-1.245388e-08
2.345000	2841261.036329	-2.539991e-08
2.350000	2848513.290131	-1.427892e-08
2.355000	2855764.665121	-1.300081e-08
2.360000	2863014.997759	-1.172037e-08
2.365000	2870264.407342	-1.456045e-08
2.370000	2877512.920634	-2.080729e-08
2.375000	2884760.434685	-2.672772e-08
2.380000	2892007.059370	-2.251494e-08
2.385000	2899252.793978	-1.786261e-08
2.390000	2906497.611150	-1.190667e-08
2.395000	2913741.507842	-2.279672e-08
2.400000	2920984.582404	-9.900663e-09
2.405000	2928226.774043	-9.391215e-09
2.410000	2935468.125121	-1.384967e-08
2.415000	2942708.661918	-8.266025e-09
2.420000	2949948.494468	-1.501499e-08
2.425000	2957187.471884	-1.155860e-08
2.430000	2964425.781933	-1.686992e-08
2.435000	2971663.337321	-1.591741e-08
2.440000	2978900.119339	-3.556386e-09
2.445000	2986136.333745	-1.097548e-08
2.450000	2993371.808684	-5.581834e-09
2.455000	3000606.640956	-1.140629e-08
2.460000	3007840.856909	-7.321539e-09
2.465000	3015074.407979	-1.276825e-08
2.470000	3022307.418076	-1.496739e-08
2.475000	3029539.796664	-1.625486e-10
2.480000	3036771.554792	-5.214503e-09
2.485000	3044002.714888	-7.818901e-09
2.490000	3051233.242547	-1.368626e-09
2.495000	3058463.154065	-1.157208e-09
2.500000	3065692.450051	-2.337827e-09
2.505000	3072921.096765	-5.873922e-09
2.510000	3080149.160534	-2.355350e-09
2.515000	3087376.669154	-2.677063e-09
2.520000	3094603.611145	-4.795369e-09
2.525000	3101829.988700	-8.396763e-09
2.530000	3109055.823439	-1.856725e-09
2.535000	3116281.117902	-3.043612e-09
2.540000	3123505.834604	-6.414113e-09
2.545000	3130729.995173	-8.000927e-09
2.550000	3137953.712986	5.103703e-09
2.555000	3145176.867559	-1.400773e-08
2.560000	3152399.543068	-1.673658e-08
2.565000	3159621.724608	-2.235620e-09
2.570000	3166843.370728	-8.829467e-09
2.575000	3174064.610470	-1.148058e-08
2.580000	3181285.393840	3.671660e-10
2.585000	3188505.627711	-6.588318e-10
2.590000	3195725.425779	-5.844156e-09
2.595000	3202944.823556	-8.124911e-09
2.600000	3210163.841302	-5.520614e-09
2.605000	3217382.511026	-9.365134e-10
2.610000	3224600.714728	-1.527319e-09
2.615000	3231818.578679	-4.576647e-09
2.620000	3239036.187193	-2.706765e-09
2.625000	3246253.450787	-8.246017e-09
2.630000	3253470.376055	-9.946273e-09
2.635000	3260687.011094	-9.618257e-09
2.640000	3267903.343772	-6.456828e-09
2.645000	3275119.384936	3.725767e-09
2.650000	3282335.123575	-3.096315e-09
2.655000	3289550.605659	-9.337429e-10
2.660000	3296765.861152	-6.315082e-09
2.665000	3303980.895094	-7.431863e-09
2.670000	3311195.741355	3.923465e-09
2.675000	3318410.454067	5.878886e-09
2.680000	3325625.018418	-1.094240e-08
2.685000	3332839.553000	4.205669e-09
2.690000	3340054.002674	6.046695e-11
2.695000	3347268.377324	-4.411452e-09
2.700000	3354482.579109	1.362284e-08
2.705000	3361696.703304	3.894567e-09
2.710000	3368910.845189	9.681796e-09
2.715000	3376124.999128	-1.161909e-08
2.720000	3383339.003925	1.730572e-10
2.725000	3390552.963443	6.002358e-09
2.730000	3397766.892090	-1.583097e-09
2.735000	3404980.799261	3.289593e-09
2.740000	3412194.619158	7.474577e-09
2.745000	3419408.343132	7.640738e-09
2.750000	3426622.099530	1.224781e-09
2.755000	3433835.774522	3.874923e-09
2.760000	3441049.347471	6.009491e-09
2.765000	3448262.904399	3.597141e-09
2.770000	3455476.439320	2.189853e-09
2.775000	3462689.917997	-4.032941e-09
2.780000	3469903.461858	1.086525e-08
2.785000	3477116.975065	1.347574e-10
2.790000	3484330.621164	-3.450567e-09
2.795000	3491544.314182	4.605673e-09
2.800000	3498758.150666	1.088234e-08
2.805000	3505972.038966	-3.075159e-09
2.810000	3513186.038660	7.742456e-09
2.815000	3520400.191395	9.255929e-09
2.820000	3527614.476302	1.023434e-09
2.825000	3534828.920970	4.074898e-09
2.830000	3542043.588817	5.963111e-09
2.835000	3549258.440037	9.886630e-09
2.840000	3556473.502712	2.385210e-09
2.845000	3563688.808730	2.143917e-09
2.850000	3570904.492340	1.482751e-08
2.855000	3578120.386781	4.093659e-10
2.860000	3585336.538536	1.228305e-08
2.865000	3592553.013497	6.951240e-09
2.870000	3599769.820078	7.463801e-09
2.875000	3606987.006819	1.394563e-08
2.880000	3614204.543382	1.741471e-08
2.885000	3621422.472014	1.284389e-08
2.890000	3628640.720700	9.917081e-09
2.895000	3635859.343642	8.724058e-09
2.900000	3643078.343590	1.929929e-08
2.905000	3650297.813394	1.678465e-08
2.910000	3657517.710702	1.716618e-08
2.915000	3664738.029134	1.059418e-08
2.920000	3671958.789953	7.352892e-09
2.925000	3679180.055407	1.931455e-08
2.930000	3686401.824834	8.019634e-09
2.935000	3693624.080344	1.444918e-08
2.940000	3700846.785409	1.098759e-08
2.945000	3708070.041019	1.452684e-08
2.950000	3715293.748268	1.241175e-08
2.955000	3722517.934864	7.360919e-09
2.960000	3729742.686994	2.545168e-08
2.965000	3736967.997888	3.447447e-09
2.970000	3744193.831547	1.741639e-08
2.975000	3751420.296144	1.454006e-08
2.980000	3758647.367900	1.322144e-08
2.985000	3765875.095585	1.765604e-08
2.990000	3773103.384953	8.510495e-09
2.995000	3780332.324831	1.599808e-08
3.000000	3787561.820892	1.508505e-08
3.005000	3794791.955864	1.682448e-08
3.010000	3802022.743103	1.729040e-08
3.015000	3809254.126074	1.576408e-08
3.020000	3816486.120181	1.857233e-08
3.025000	3823718.893259	1.326964e-08
3.030000	3830952.249283	1.651855e-08
3.035000	3838186.264092	7.739509e-09
3.040000	3845420.942893	2.375510e-08
3.045000	3852656.397323	1.848858e-08
3.050000	3859892.450422	8.978717e-09
3.055000	3867129.142878	1.742101e-08
3.060000	3874366.621365	1.328530e-08
3.065000	3881604.732075	1.504540e-08
3.070000	3888843.535377	2.202043e-08
3.075000	3896082.952747	1.929510e-08
3.080000	3903323.022714	2.441224e-08
3.085000	3910563.692366	1.850121e-08
3.090000	3917804.979021	1.607515e-08
3.095000	3925046.953735	1.580968e-08
3.100000	3932289.463399	1.109152e-08
3.105000	3939532.542403	1.415958e-08
3.110000	3946776.274436	9.562304e-09
3.115000	3954020.542149	1.192976e-08
3.120000	3961265.359223	2.054932e-08
3.125000	3968510.771322	7.727360e-09
3.130000	3975756.692253	9.085599e-09
3.135000	3983003.150163	1.581524e-08
3.140000	3990250.162475	5.557570e-09
3.145000	3997497.700577	1.547194e-08
3.150000	4004745.758133	1.278158e-08
3.155000	4011994.405350	6.581010e-09
3.160000	4019243.620059	4.273593e-09
3.165000	4026493.302661	1.185589e-08
3.170000	4033743.505397	1.625860e-08
3.175000	4040994.171812	-1.245372e-09
3.180000	4048245.426550	5.411257e-09
3.185000	4055497.134139	6.960239e-09
3.190000	4062749.335436	1.190427e-08
3.195000	4070001.960540	8.877171e-09
3.200000	4077255.018386	1.458457e-08
3.205000	4084508.650663	5.898657e-09
3.210000	4091762.680535	2.573249e-09
3.215000	4099017.124147	1.187623e-08
3.220000	4106272.107933	5.499575e-09
3.225000	4113527.563746	4.619310e-09
3.230000	4120783.551527	1.506951e-08
3.235000	4128039.938915	1.025415e-08
3.240000	4135296.766130	1.445370e-08
3.245000	4142554.108095	4.601044e-09
3.250000	4149811.883713	1.187710e-08
3.255000	4157070.119485	1.090312e-08
3.260000	4164328.793540	8.789904e-09
3.265000	4171587.793298	1.845716e-08
3.270000	4178847.248552	1.152714e-08
3.275000	4186107.173871	6.468268e-09
3.280000	4193367.455244	-2.819494e-10
3.285000	4200628.113034	1.233950e-08
3.290000	4207889.328675	6.508475e-09
3.295000	4215150.878904	9.718668e-09
3.300000	4222412.854643	1.659606e-08
3.305000	4229675.238854	2.320774e-09
3.310000	4236938.085942	6.583283e-09
3.315000	4244201.375908	4.568348e-09
3.320000	4251465.056165	1.370341e-08
3.325000	4258729.086078	-5.577788e-10
3.330000	4265993.547507	9.200171e-09
3.335000	4273258.465837	9.146099e-09
3.340000	4280523.807443	1.375077e-08
3.345000	4287789.657592	1.348807e-08
3.350000	4295055.981314	1.140991e-08
3.355000	4302322.772407	1.487644e-08
3.360000	4309590.014967	9.069564e-09
3.365000	4316857.791649	2.021817e-08
3.370000	4324126.149358	1.360323e-08
3.375000	4331394.983969	1.428848e-08
3.380000	4338664.243937	1.326922e-08
3.385000	4345934.048691	9.576659e-09
3.390000	4353204.453287	1.846287e-08
3.395000	4360475.470661	1.627791e-08
3.400000	4367747.041954	7.615830e-09
3.405000	4375019.162472	1.078525e-08
3.410000	4382291.819984	1.615812e-08
3.415000	4389565.082044	1.741710e-08
3.420000	4396838.948005	1.594019e-08
3.425000	4404113.443443	1.825726e-08
3.430000	4411388.643758	2.297916e-09
3.435000	4418664.503180	1.622772e-08
3.440000	4425940.991370	1.604803e-08
3.445000	4433218.113371	1.550936e-08
3.450000	4440495.841756	1.221975e-08
3.455000	4447774.159338	1.805923e-08
3.460000	4455053.104230	3.080196e-09
3.465000	4462332.668562	9.746181e-09
3.470000	4469612.810526	1.395659e-08
3.475000	4476893.466519	8.673823e-09
3.480000	4484174.668620	1.632302e-08
3.485000	4491456.388105	1.012846e-08
3.490000	4498738.671302	1.112252e-08
3.495000	4506021.484561	1.580611e-08
3.500000	4513304.860770	1.712056e-08
3.505000	4520588.797729	1.917689e-08
3.510000	4527873.257934	2.195314e-08
3.515000	4535158.187964	1.054615e-08
3.520000	4542443.603707	1.561758e-08
3.525000	4549729.511603	1.029377e-08
3.530000	4557015.958935	1.773720e-08
3.535000	4564302.923628	9.461562e-09
3.540000	4571590.267489	1.146088e-08
3.545000	4578878.105133	1.746591e-08
3.550000	4586166.469503	-4.093311e-09
3.555000	4593455.276720	9.029588e-09
3.560000	4600744.546327	1.798915e-08
3.565000	4608034.314876	2.209353e-08
3.570000	4615324.498718	9.182121e-09
3.575000	4622615.171394	2.128856e-08
3.580000	4629906.260159	9.059869e-09
3.585000	4637197.787540	1.719598e-08
3.590000	4644489.816124	3.010625e-10
3.595000	4651782.235130	1.541106e-08
3.600000	4659075.154732	1.007716e-08
3.605000	4666368.467102	8.834977e-09
3.610000	4673662.352394	8.711775e-09
3.615000	4680956.540191	1.131332e-08
3.620000	4688251.219600	8.169658e-09
3.625000	4695546.380709	2.709287e-09
3.630000	4702841.932380	1.217261e-08
3.635000	4710137.880740	7.602536e-09
3.640000	4717434.156618	9.916942e-09
3.645000	4724731.019228	5.025139e-09
3.650000	4732028.118550	1.056737e-08
3.655000	4739325.577755	1.652754e-08
3.660000	4746623.533475	8.762268e-09
3.665000	4753921.801934	6.880719e-09
3.670000	4761220.276916	9.762948e-09
3.675000	4768519.239812	7.965343e-09
3.680000	4775818.586372	1.068737e-08
3.685000	4783118.122608	2.359379e-09
3.690000	4790417.972118	8.170550e-09
3.695000	4797718.174703	1.011378e-08
3.700000	4805018.670921	6.030626e-09
3.705000	4812319.465093	1.156370e-08
3.710000	4819620.587647	1.583888e-08
3.715000	4826921.836066	1.607242e-08
3.720000	4834223.471807	1.779228e-08
3.725000	4841525.321405	7.727156e-09
3.730000	4848827.433171	1.242904e-08
3.735000	4856129.873592	3.285090e-09
3.740000	4863432.473269	8.169728e-09
3.745000	4870735.320188	1.179815e-08
3.750000	4878038.507917	8.196044e-09
3.755000	4885341.996406	4.778760e-09
3.760000	4892645.698599	1.309649e-08
3.765000	4899949.673083	6.888596e-09
3.770000	4907254.023173	2.383905e-08
3.775000	4914558.679246	1.667410e-08
3.780000	4921863.648094	1.885918e-08
3.785000	4929168.988352	7.073290e-09
3.790000	4936474.674800	1.831699e-08
3.795000	4943780.701278	2.073458e-08
3.800000	4951087.265350	8.963307e-09
3.805000	4958394.188593	1.289144e-08
3.810000	4965701.556035	1.395349e-08
3.815000	4973009.415616	8.816032e-09
3.820000	4980317.721100	1.217776e-08
3.825000	4987626.497533	1.246376e-08
3.830000	4994935.818696	2.047578e-08
3.835000	5002245.657893	4.006234e-09
3.840000	5009556.010472	1.464752e-08
3.845000	5016866.942946	1.704166e-08
3.850000	5024178.375337	1.003148e-08
3.855000	5031490.277634	1.566208e-08
3.860000	5038802.890369	1.252489e-08
3.865000	5046116.013277	1.879985e-08
3.870000	5053429.857312	2.247600e-08
3.875000	5060744.433791	1.501044e-08
3.880000	5068059.698998	1.684810e-08
3.885000	5075375.628480	8.157015e-09
3.890000	5082692.260451	1.848221e-08
3.895000	5090009.575406	1.153047e-08
3.900000	5097327.642499	1.967539e-08
3.905000	5104646.460572	1.989159e-08
3.910000	5111965.966121	1.119801e-08
3.915000	5119286.277709	2.222986e-08
3.920000	5126607.410420	1.773218e-08
3.925000	5133929.270595	2.261306e-08
3.930000	5141251.903333	2.781766e-08
3.935000	5148575.287633	1.770100e-08
3.940000	5155899.440838	1.804441e-08
3.945000	5163224.432537	2.105270e-08
3.950000	5170550.156321	1.531429e-08
3.955000	5177876.803010	1.773950e-08
3.960000	5185204.292764	2.072728e-08
3.965000	5192532.523613	1.458290e-08
3.970000	5199861.704197	2.648728e-08
3.975000	5207191.746485	2.085522e-08
3.980000	5214522.643440	1.879409e-08
3.985000	5221854.324991	2.957342e-08
3.990000	5229186.984793	2.675632e-08
3.995000	5236520.407172	2.765747e-08
4.000000	5243854.689022	2.398746e-08
4.005000	5251189.700923	2.327462e-08
4.010000	5258525.731564	2.545872e-08
4.015000	5265862.450995	2.184614e-08
4.020000	5273200.060849	2.476884e-08
4.025000	5280538.624317	1.508776e-08
4.030000	5287877.865386	3.101293e-08
4.035000	5295218.092160	2.223504e-08
4.040000	5302559.151889	2.148092e-08
4.045000	5309901.098981	2.070834e-08
4.050000	5317243.832166	2.520124e-08
4.055000	5324587.501166	2.299451e-08
4.060000	5331931.957712	2.331379e-08
4.065000	5339277.332191	2.022616e-08