0.000000	0.000000	6.115440e-06
0.005000	65.772126	2.255307e-06
0.010000	249.127444	2.439996e-06
0.015000	553.683416	2.385917e-06
0.020000	977.307423	2.341513e-06
0.025000	1518.328928	2.317919e-06
0.030000	2175.267358	2.285285e-06
0.035000	2946.648680	2.255228e-06
0.040000	3830.956977	2.228052e-06
0.045000	4826.749616	2.201661e-06
0.050000	5932.545892	2.168058e-06
0.055000	7146.930749	2.140118e-06
0.060000	8468.467943	2.114317e-06
0.065000	9895.773304	2.078699e-06
0.070000	11427.462899	2.053067e-06
0.075000	13062.177578	2.032277e-06
0.080000	14798.556680	2.006921e-06
0.085000	16635.259695	1.975263e-06
0.090000	18570.967000	1.949640e-06
0.095000	20604.349091	1.923926e-06
0.100000	22734.147795	1.895273e-06
0.105000	24959.069351	1.872452e-06
0.110000	27277.877309	1.848956e-06
0.115000	29689.321255	1.824800e-06
0.120000	32192.171377	1.802317e-06
0.125000	34785.216462	1.776808e-06
0.130000	37467.269172	1.755157e-06
0.135000	40237.151165	1.729769e-06
0.140000	43093.710571	1.712353e-06
0.145000	46035.793509	1.684749e-06
0.150000	49062.262586	1.657874e-06
0.155000	52172.042705	1.639392e-06
0.160000	55363.982688	1.619251e-06
0.165000	58637.028856	1.598927e-06
0.170000	61990.099821	1.577815e-06
0.175000	65422.119225	1.548724e-06
0.180000	68932.056567	1.538236e-06
0.185000	72518.878745	1.511074e-06
0.190000	76181.563008	1.494942e-06
0.195000	79919.126425	1.477029e-06
0.200000	83730.557079	1.459797e-06
0.205000	87614.902360	1.435280e-06
0.210000	91571.200567	1.417836e-06
0.215000	95598.525442	1.398287e-06
0.220000	99695.928572	1.379536e-06
0.225000	103862.520601	1.366287e-06
0.230000	108097.362450	1.344284e-06
0.235000	112399.607412	1.326357e-06
0.240000	116768.362663	1.304711e-06
0.245000	121202.750759	1.292516e-06
0.250000	125701.909980	1.273644e-06
0.255000	130264.993154	1.257108e-06
0.260000	134891.156817	1.241813e-06
0.265000	139579.553538	1.222208e-06
0.270000	144329.383422	1.211491e-06
0.275000	149139.805102	1.195378e-06
0.280000	154010.035510	1.184406e-06
0.285000	158939.290639	1.162234e-06
0.290000	163926.757055	1.149772e-06
0.295000	168971.670684	1.129226e-06
0.300000	174073.284555	1.117981e-06
0.305000	179230.828593	1.100848e-06
0.310000	184443.597016	1.089688e-06
0.315000	189710.831309	1.081383e-06
0.320000	195031.858132	1.063731e-06
0.325000	200405.940040	1.043891e-06
0.330000	205832.391373	1.037564e-06
0.335000	211310.518113	1.022798e-06
0.340000	216839.643219	1.014429e-06
0.345000	222419.063940	9.935610e-07
0.350000	228048.144297	9.841305e-07
0.355000	233726.185831	9.666293e-07
0.360000	239452.567330	9.542079e-07
0.365000	245226.644984	9.401416e-07
0.370000	251047.773641	9.271881e-07
0.375000	256915.301977	9.141375e-07
0.380000	262828.631413	9.037046e-07
0.385000	268787.098433	8.942599e-07
0.390000	274790.119762	8.772908e-07
0.395000	280837.065446	8.636082e-07
0.400000	286927.338812	8.558202e-07
0.405000	293060.336006	8.443067e-07
0.410000	299235.480759	8.293834e-07
0.415000	305452.203902	8.186885e-07
0.420000	311709.915491	8.084306e-07
0.425000	318008.104725	7.933807e-07
0.430000	324346.186629	7.875373e-07
0.435000	330723.630709	7.781632e-07
0.440000	337139.897226	7.649455e-07
0.445000	343594.466621	7.529764e-07
0.450000	350086.805244	7.387512e-07
0.455000	356616.416841	7.399048e-07
0.460000	363182.755359	7.204764e-07
0.465000	369785.348894	7.149098e-07
0.470000	376423.706196	7.047238e-07
0.475000	383097.335737	6.885418e-07
0.480000	389805.739921	6.901289e-07
0.485000	396548.487963	6.749867e-07
0.490000	403325.070766	6.697264e-07
0.495000	410135.041812	6.535214e-07
0.500000	416977.965681	6.521273e-07
0.505000	423853.383297	6.436719e-07
0.510000	430760.857647	6.322567e-07
0.515000	437699.941861	6.268082e-07
0.520000	444670.220115	6.106413e-07
0.525000	451671.268515	6.049999e-07
0.530000	458702.688824	5.993131e-07
0.535000	465764.053137	5.877732e-07
0.540000	472854.978448	5.880704e-07
0.545000	479975.047688	5.760353e-07
0.550000	487123.917805	5.722225e-07
0.555000	494301.173298	5.587933e-07
0.560000	501506.443053	5.548363e-07
0.565000	508739.375026	5.443569e-07
0.570000	515999.562837	5.382651e-07
0.575000	523286.651780	5.330587e-07
0.580000	530600.282317	5.236930e-07
0.585000	537940.084713	5.189681e-07
0.590000	545305.727667	5.090874e-07
0.595000	552696.873983	4.951627e-07
0.600000	560113.178816	4.923565e-07
0.605000	567554.318639	4.878376e-07
0.610000	575019.974659	4.830808e-07
0.615000	582509.837986	4.770329e-07
0.620000	590023.604173	4.772488e-07
0.625000	597560.935886	4.679765e-07
0.630000	605121.591982	4.643867e-07
0.635000	612705.244157	4.542294e-07
0.640000	620311.597237	4.499147e-07
0.645000	627940.362901	4.427599e-07
0.650000	635591.242661	4.352917e-07
0.655000	643263.952861	4.319293e-07
0.660000	650958.226006	4.276351e-07
0.665000	658673.778399	4.257203e-07
0.670000	666410.342874	4.147282e-07
0.675000	674167.654612	4.102875e-07
0.680000	681945.449396	4.047514e-07
0.685000	689743.462742	3.946201e-07
0.690000	697561.438428	3.936471e-07
0.695000	705399.101649	3.898916e-07
0.700000	713256.218005	3.830707e-07
0.705000	721132.533232	3.743352e-07
0.710000	729027.796735	3.752061e-07
0.715000	736941.779014	3.675962e-07
0.720000	744874.236560	3.633624e-07
0.725000	752824.933714	3.560307e-07
0.730000	760793.601095	3.540788e-07
0.735000	768780.060264	3.445059e-07
0.740000	776784.057140	3.409103e-07
0.745000	784805.372590	3.381511e-07
0.750000	792843.761709	3.383279e-07
0.755000	800899.061035	3.324150e-07
0.760000	808971.033376	3.226741e-07
0.765000	817059.448611	3.244314e-07
0.770000	825164.127914	3.273023e-07
0.775000	833284.864451	3.133446e-07
0.780000	841421.421448	3.092409e-07
0.785000	849573.642726	3.090527e-07
0.790000	857741.247392	2.998854e-07
0.795000	865924.098249	3.032538e-07
0.800000	874121.963495	2.915548e-07
0.805000	882334.655829	2.931260e-07
0.810000	890561.995232	2.852341e-07
0.815000	898803.761897	2.882488e-07
0.820000	907059.786899	2.738501e-07
0.825000	915329.882703	2.719558e-07
0.830000	923613.844169	2.797948e-07
0.835000	931911.504722	2.720026e-07
0.840000	940222.679650	2.612996e-07
0.845000	948547.199277	2.572325e-07
0.850000	956884.867495	2.552187e-07
0.855000	965235.539064	2.538624e-07
0.860000	973599.004052	2.485603e-07
0.865000	981975.115166	2.491146e-07
0.870000	990363.689080	2.449753e-07
0.875000	998764.559322	2.373954e-07
0.880000	1007177.557824	2.362811e-07
0.885000	1015602.528949	2.359650e-07
0.890000	1024039.303032	2.342079e-07
0.895000	1032487.719701	2.266500e-07
0.900000	1040947.619227	2.243866e-07
0.905000	1049418.848327	2.250217e-07
0.910000	1057901.259523	2.213993e-07
0.915000	1066394.667834	2.145816e-07
0.920000	1074898.941905	2.152875e-07
0.925000	1083413.922557	2.112110e-07
0.930000	1091939.452513	2.040835e-07
0.935000	1100475.398978	2.033773e-07
0.940000	1109021.627740	2.009880e-07
0.945000	1117578.007009	1.989100e-07
0.950000	1126144.368415	2.008923e-07
0.955000	1134720.597784	1.933386e-07
0.960000	1143306.541219	1.856641e-07
0.965000	1151902.072841	1.920672e-07
0.970000	1160507.056360	1.900642e-07
0.975000	1169121.361889	1.834700e-07
0.980000	1177744.880493	1.853946e-07
0.985000	1186377.428433	1.802960e-07
0.990000	1195018.931843	1.702748e-07
0.995000	1203669.264536	1.746077e-07
1.000000	1212328.262560	1.696418e-07
1.005000	1220995.820371	1.650542e-07
1.010000	1229671.813644	1.673660e-07
1.015000	1238356.106022	1.630002e-07
1.020000	1247048.595404	1.561745e-07
1.025000	1255749.166095	1.609903e-07
1.030000	1264457.666870	1.570714e-07
1.035000	1273173.985657	1.481874e-07
1.040000	1281898.009872	1.525519e-07
1.045000	1290629.600439	1.473869e-07
1.050000	1299368.678663	1.535536e-07
1.055000	1308115.101747	1.441758e-07
1.060000	1316868.749459	1.442376e-07
1.065000	1325629.527719	1.405323e-07
1.070000	1334397.372925	1.378527e-07
1.075000	1343172.141267	1.379545e-07
1.080000	1351953.750952	1.377504e-07
1.085000	1360742.122413	1.296565e-07
1.090000	1369537.148517	1.290483e-07
1.095000	1378338.737287	1.272309e-07
1.100000	1387146.811505	1.337058e-07
1.105000	1395961.247130	1.267349e-07
1.110000	1404781.999154	1.269819e-07
1.115000	1413608.957880	1.172985e-07
1.120000	1422442.043399	1.214532e-07
1.125000	1431281.189125	1.140115e-07
1.130000	1440126.261178	1.173414e-07
1.135000	1448977.200376	1.124759e-07
1.140000	1457833.928413	1.039456e-07
1.145000	1466696.339175	1.114952e-07
1.150000	1475564.345666	1.117720e-07
1.155000	1484437.882557	1.079632e-07
1.160000	1493316.851115	1.037011e-07
1.165000	1502201.153734	1.071876e-07
1.170000	1511090.732294	1.066155e-07
1.175000	1519985.499350	1.073748e-07
1.180000	1528885.374061	9.783110e-08
1.185000	1537790.270345	1.083091e-07
1.190000	1546700.109233	9.334815e-08
1.195000	1555614.857406	9.401186e-08
1.200000	1564534.414125	1.009140e-07
1.205000	1573458.719239	8.971787e-08
1.210000	1582387.701947	9.482851e-08
1.215000	1591321.283081	9.142172e-08
1.220000	1600259.391767	8.795261e-08
1.225000	1609201.947332	8.566413e-08
1.230000	1618148.889157	8.901147e-08
1.235000	1627100.173367	7.885780e-08
1.240000	1636055.731524	8.651114e-08
1.245000	1645015.503944	8.374847e-08
1.250000	1653979.432454	8.215930e-08
1.255000	1662947.458573	8.303043e-08
1.260000	1671919.503897	7.507492e-08
1.265000	1680895.547099	7.829984e-08
1.270000	1689875.502229	7.451173e-08
1.275000	1698859.325657	7.151961e-08
1.280000	1707846.928624	7.169796e-08
1.285000	1716838.239948	6.876987e-08
1.290000	1725833.232672	6.690304e-08
1.295000	1734831.836920	6.718367e-08
1.300000	1743833.962143	7.077138e-08
1.305000	1752839.588820	6.770767e-08
1.310000	1761848.665983	6.825780e-08
1.315000	1770861.132727	6.991778e-08
1.320000	1779876.913860	6.333819e-08
1.325000	1788895.986187	6.463885e-08
1.330000	1797918.260909	6.338935e-08
1.335000	1806943.722864	6.247136e-08
1.340000	1815972.277142	6.210375e-08
1.345000	1825003.903035	6.184326e-08
1.350000	1834038.514347	5.675809e-08
1.355000	1843076.093368	5.511458e-08
1.360000	1852116.536202	4.894879e-08
1.365000	1861159.843581	5.313803e-08
1.370000	1870205.915221	5.739363e-08
1.375000	1879254.737228	4.827179e-08
1.380000	1888306.258120	4.942150e-08
1.385000	1897360.434963	5.304096e-08
1.390000	1906417.214750	4.398379e-08
1.395000	1915476.579351	4.423023e-08
1.400000	1924538.478450	4.644167e-08
1.405000	1933602.854862	4.690090e-08
1.410000	1942669.681749	3.888855e-08
1.415000	1951738.929099	4.614369e-08
1.420000	1960810.530245	4.374904e-08
1.425000	1969884.430191	3.929166e-08
1.430000	1978960.604077	3.755875e-08
1.435000	1988038.989339	4.334518e-08
1.440000	1997119.587793	3.858929e-08
1.445000	2006202.337744	4.678696e-08
1.450000	2015287.182196	3.504323e-08
1.455000	2024374.077285	3.560073e-08
1.460000	2033463.014724	3.999344e-08
1.465000	2042553.945130	3.720562e-08
1.470000	2051646.842655	3.832285e-08
1.475000	2060741.647098	3.314529e-08
1.480000	2069838.359634	3.147196e-08
1.485000	2078936.911784	3.417588e-08
1.490000	2088037.252662	2.698482e-08
1.495000	2097139.393587	3.018981e-08
1.500000	2106243.288685	3.563813e-08
1.505000	2115348.933503	3.044567e-08
1.510000	2124456.283270	3.005996e-08
1.515000	2133565.324682	3.464323e-08
1.520000	2142675.987612	3.346340e-08
1.525000	2151788.281721	2.887126e-08
1.530000	2160902.172330	2.776846e-08
1.535000	2170017.608313	3.238438e-08
1.540000	2179134.585087	3.170785e-08
1.545000	2188253.059749	2.600743e-08
1.550000	2197373.051975	3.046653e-08
1.555000	2206494.500966	2.790818e-08
1.560000	2215617.403303	3.342252e-08
1.565000	2224741.750882	2.485763e-08
1.570000	2233867.544469	3.231396e-08
1.575000	2242994.737638	2.499105e-08
1.580000	2252123.331219	2.715910e-08
1.585000	2261253.312149	2.325500e-08
1.590000	2270384.635222	2.730429e-08
1.595000	2279517.308340	2.120946e-08
1.600000	2288651.297829	3.152171e-08
1.605000	2297786.614124	2.578010e-08
1.610000	2306923.228942	2.286424e-08
1.615000	2316061.112419	1.974223e-08
1.620000	2325200.255376	2.028569e-08
1.625000	2334340.665665	1.860008e-08
1.630000	2343482.301834	2.138732e-08
1.635000	2352625.157731	2.149321e-08
1.640000	2361769.229308	1.960186e-08
1.645000	2370914.487464	2.678032e-08
1.650000	2380060.912423	2.528628e-08
1.655000	2389208.508430	2.558326e-08
1.660000	2398357.231244	2.423668e-08
1.665000	2407507.085574	1.796196e-08
1.670000	2416658.023815	2.731591e-08
1.675000	2425809.999045	2.418615e-08
1.680000	2434963.015926	2.524081e-08
1.685000	2444117.073417	2.412735e-08
1.690000	2453272.146747	2.714024e-08
1.695000	2462428.239338	1.938554e-08
1.700000	2471585.312952	1.620415e-08
1.705000	2480743.377573	2.208763e-08
1.710000	2489902.389552	1.974302e-08
1.715000	2499062.344961	2.339792e-08
1.720000	2508223.214575	2.092438e-08
1.725000	2517384.971616	2.134678e-08
1.730000	2526547.611805	2.353563e-08
1.735000	2535711.150260	1.353708e-08
1.740000	2544875.548651	2.518132e-08
1.745000	2554040.812494	1.997507e-08
1.750000	2563206.946950	2.049844e-08
1.755000	2572373.947948	2.148950e-08
1.760000	2581541.857137	1.784886e-08
1.765000	2590710.635961	2.186839e-08
1.770000	2599880.298686	1.927900e-08
1.775000	2609050.843890	2.008480e-08
1.780000	2618222.283201	2.041173e-08
1.785000	2627394.615896	2.019662e-08
1.790000	2636567.834110	2.058487e-08
1.795000	2645741.908664	1.630015e-08
1.800000	2654916.837226	1.945431e-08
1.805000	2664092.603636	1.967648e-08
1.810000	2673269.212599	1.830127e-08
1.815000	2682446.655363	1.397797e-08
1.820000	2691624.943093	2.268779e-08
1.825000	2700804.074688	1.732963e-08
1.830000	2709984.046953	1.425435e-08
1.835000	2719164.864179	1.768563e-08
1.840000	2728346.509104	1.930354e-08
1.845000	2737528.963103	1.560164e-08
1.850000	2746712.225444	1.888517e-08
1.855000	2755896.296271	2.206348e-08
1.860000	2765081.150233	1.549056e-08
1.865000	2774266.777478	1.732055e-08
1.870000	2783453.188700	1.720965e-08
1.875000	2792640.375563	2.140698e-08
1.880000	2801828.318315	1.556976e-08
1.885000	2811017.026018	1.975373e-08
1.890000	2820206.493345	1.439699e-08
1.895000	2829396.720111	1.736296e-08
1.900000	2838587.764442	1.768382e-08
1.905000	2847779.552526	2.413685e-08
1.910000	2856972.170950	1.410197e-08
1.915000	2866165.572315	2.622743e-08
1.920000	2875359.810042	1.368416e-08
1.925000	2884554.853506	1.999931e-08
1.930000	2893750.738237	1.683049e-08
1.935000	2902947.446020	1.626674e-08
1.940000	2912144.964294	2.409217e-08
1.945000	2921343.292953	1.448693e-08
1.950000	2930542.457441	1.852065e-08
1.955000	2939742.421135	1.968397e-08
1.960000	2948943.195531	2.034944e-08
1.965000	2958144.775479	1.682927e-08
1.970000	2967347.151321	2.180001e-08
1.975000	2976550.358380	1.816618e-08
1.980000	2985754.395867	1.439518e-08
1.985000	2994959.248817	2.211631e-08
1.990000	3004164.912460	2.309025e-08
1.995000	3013371.387893	2.310879e-08
2.000000	3022578.675316	1.738692e-08
2.005000	3031786.739126	1.753010e-08
2.010000	3040995.591175	2.048745e-08
2.015000	3050205.202231	1.737827e-08
2.020000	3059415.529654	1.969553e-08
2.025000	3068626.585662	2.212979e-08
2.030000	3077838.366633	1.533989e-08
2.035000	3087050.805018	9.762767e-09
2.040000	3096263.894730	1.230877e-08
2.045000	3105477.644449	1.633402e-08
2.050000	3114692.054614	1.629713e-08
2.055000	3123907.083353	1.011961e-08
2.060000	3133122.727112	1.804935e-08
2.065000	3142338.935806	9.547581e-09
2.070000	3151555.715902	5.112721e-09
2.075000	3160773.029436	1.427295e-08
2.080000	3169990.894745	1.082230e-08
2.085000	3179209.259671	1.084169e-08
2.090000	3188428.132775	1.270595e-08
2.095000	3197647.466075	8.692735e-09
2.100000	3206867.285770	9.061592e-09
2.105000	3216087.534640	6.208347e-09
2.110000	3225308.207483	9.482753e-09
2.115000	3234529.313899	6.076672e-09
2.120000	3243750.879494	2.199668e-09
2.125000	3252972.841413	5.162771e-10
2.130000	3262195.254005	3.747681e-09
2.135000	3271418.052341	6.766606e-09
2.140000	3280641.259225	3.073729e-09
2.145000	3289864.778312	4.079699e-09
2.150000	3299088.659048	4.099667e-09
2.155000	3308312.866116	4.416927e-09
2.160000	3317537.409928	8.345911e-09
2.165000	3326762.273670	6.123960e-10
2.170000	3335987.430152	-2.763602e-09
2.175000	3345212.873522	4.889251e-09
2.180000	3354438.597034	4.419909e-09
2.185000	3363664.590260	-1.986249e-09
2.190000	3372890.866921	4.624699e-09
2.195000	3382117.424649	-3.460571e-09
2.200000	3391344.226968	-1.434110e-09
2.205000	3400571.281828	4.442697e-09
2.210000	3409798.636087	3.549515e-09
2.215000	3419026.230007	5.686561e-09
2.220000	3428254.049096	4.013543e-09
2.225000	3437482.156540	3.225460e-09
2.230000	3446710.496001	5.768479e-09
2.235000	3455939.065018	-3.565865e-09
2.240000	3465167.885622	4.170108e-09
2.245000	3474396.930130	-1.740934e-09
2.250000	3483626.162876	8.334961e-10
2.255000	3492855.655125	2.101019e-09
2.260000	3502085.343081	1.073158e-09
2.265000	3511315.254299	3.672984e-09
2.270000	3520545.371180	-1.272069e-09
2.275000	3529775.677385	-1.224288e-09
2.280000	3539006.212120	-3.569902e-10
2.285000	3548236.901323	1.386418e-09
2.290000	3557467.773565	2.336842e-09
2.295000	3566698.792314	-5.512391e-09
2.300000	3575929.951987	2.898618e-09
2.305000	3585161.282132	1.250287e-09
2.310000	3594392.752022	5.683257e-09
2.315000	3603624.379812	-2.595862e-09
2.320000	3612856.148964	1.443819e-10
2.325000	3622088.052352	-8.515609e-10
2.330000	3631320.098088	-2.088068e-09
2.335000	3640552.292041	-6.757316e-09
2.340000	3649784.573402	1.234767e-09
2.345000	3659017.078124	-2.548205e-09
2.350000	3668249.750540	2.303235e-09
2.355000	3677482.591412	1.265171e-09
2.360000	3686715.626523	4.724225e-10
2.365000	3695948.823740	4.216736e-09
2.370000	3705182.229370	2.148400e-09
2.375000	3714415.804183	6.608404e-09
2.380000	3723649.596037	4.348063e-09
2.385000	3732883.594796	2.128518e-09
2.390000	3742117.829351	6.705632e-09
2.395000	3751352.277537	7.907368e-09
2.400000	3760587.018588	3.145605e-09
2.405000	3769821.989698	3.652634e-09
2.410000	3779057.234269	2.309409e-09
2.415000	3788292.722158	6.866244e-09
2.420000	3797528.484599	9.891430e-09
2.425000	3806764.502291	5.447913e-09
2.430000	3816000.832888	4.721993e-09
2.435000	3825237.400140	2.959570e-09
2.440000	3834474.311304	9.873036e-09
2.445000	3843711.541749	9.360437e-09
2.450000	3852949.071412	1.275395e-08
2.455000	3862186.987160	9.865875e-09
2.460000	3871425.245260	9.010621e-09
2.465000	3880663.862246	7.410457e-09
2.470000	3889902.852542	1.090462e-08
2.475000	3899142.237840	2.172165e-09
2.480000	3908382.032877	1.278052e-08
2.485000	3917622.258545	8.590008e-09
2.490000	3926862.987569	1.225817e-08
2.495000	3936104.167505	8.294628e-09
2.500000	3945345.844158	1.130118e-08
2.505000	3954588.039478	1.176123e-08
2.510000	3963830.802401	3.825364e-09
2.515000	3973074.074408	1.325978e-08
2.520000	3982317.911027	9.902324e-09
2.525000	3991562.327385	7.871182e-09
2.530000	4000807.302841	9.607039e-09
2.535000	4010052.861841	1.680911e-08
2.540000	4019299.037330	9.411867e-09
2.545000	4028545.829264	8.461447e-09
2.550000	4037793.228215	6.889299e-09
2.555000	4047041.282459	9.264867e-09
2.560000	4056289.967416	1.091427e-08
2.565000	4065539.314909	1.476484e-08
2.570000	4074789.323189	1.349229e-08
2.575000	4084039.968710	1.363874e-08
2.580000	4093291.257641	1.863641e-08
2.585000	4102543.228104	1.274623e-08
2.590000	4111795.912881	1.872116e-08
2.595000	4121049.286667	1.468493e-08
2.600000	4130303.319800	1.282077e-08
2.605000	4139558.121245	1.345868e-08
2.610000	4148813.655675	1.522880e-08
2.615000	4158069.923659	3.935681e-09
2.620000	4167327.003757	1.889714e-08
2.625000	4176584.879561	1.799826e-08
2.630000	4185843.561473	1.900853e-08
2.635000	4195103.122069	1.813650e-08
2.640000	4204363.492385	1.736057e-08
2.645000	4213624.783951	1.411256e-08
2.650000	4222886.949262	1.886746e-08
2.655000	4232150.021292	1.399988e-08
2.660000	4241414.073548	2.079081e-08
2.665000	4250679.076436	1.720851e-08
2.670000	4259945.118772	1.897221e-08
2.675000	4269212.234425	1.686127e-08
2.680000	4278480.364149	1.938161e-08
2.685000	4287749.586060	1.448760e-08
2.690000	4297019.880272	3.030447e-08
2.695000	4306291.284540	1.985560e-08
2.700000	4315563.739552	1.471135e-08
2.705000	4324837.311618	1.709824e-08
2.710000	4334112.025452	1.882407e-08
2.715000	4343387.925145	2.283592e-08
2.720000	4352664.968478	1.867748e-08
2.725000	4361943.198543	2.185425e-08
2.730000	4371222.601671	2.191488e-08
2.735000	4380503.247528	2.230601e-08
2.740000	4389785.129203	2.393416e-08
2.745000	4399068.265988	2.265950e-08
2.750000	4408352.660191	2.557582e-08
2.755000	4417638.322668	2.442503e-08
2.760000	4426925.268484	2.303273e-08
2.765000	4436213.514613	3.155475e-08
2.770000	4445503.038965	2.503718e-08
2.775000	4454793.846082	3.078774e-08
2.780000	4464085.936060	2.556254e-08
2.785000	4473379.313033	2.245128e-08
2.790000	4482674.016843	2.409322e-08
2.795000	4491969.988475	2.132943e-08
2.800000	4501267.248186	2.209354e-08
2.805000	4510565.890059	2.797735e-08
2.810000	4519865.853183	2.571546e-08
2.815000	4529167.193737	2.523559e-08
2.820000	4538469.882705	2.576849e-08
2.825000	4547773.952187	3.307417e-08
2.830000	4557079.412425	2.842975e-08
2.835000	4566386.301970	2.728573e-08
2.840000	4575694.664843	3.299625e-08
2.845000	4585004.433508	3.171178e-08
2.850000	4594315.718996	2.812375e-08
2.855000	4603628.440872	2.935676e-08
2.860000	4612942.609911	3.302875e-08
2.865000	4622258.258928	4.198354e-08
2.870000	4631575.393539	3.051352e-08
2.875000	4640894.052049	2.763652e-08
2.880000	4650214.259405	3.387709e-08
2.885000	4659535.955353	2.721413e-08
2.890000	4668859.118345	3.045151e-08
2.895000	4678183.715518	3.252198e-08
2.900000	4687509.784315	2.316605e-08
2.905000	4696837.311163	2.604339e-08
2.910000	4706166.295867	3.097298e-08
2.915000	4715496.707770	2.649089e-08
2.920000	4724828.573602	3.359710e-08
2.925000	4734161.881074	3.228036e-08
2.930000	4743496.630344	3.336493e-08
2.935000	4752832.827286	3.370291e-08
2.940000	4762170.429590	3.277160e-08
2.945000	4771509.480864	2.503419e-08
2.950000	4780850.062265	3.379303e-08
2.955000	4790192.086476	3.239568e-08
2.960000	4799535.565581	2.548413e-08
2.965000	4808880.428076	3.414483e-08
2.970000	4818226.701063	3.475257e-08
2.975000	4827574.365104	3.001924e-08
2.980000	4836923.381362	2.694206e-08
2.985000	4846273.822061	3.203453e-08
2.990000	4855625.645832	2.047176e-08
2.995000	4864978.816824	3.315008e-08
3.000000	4874333.384034	3.439683e-08
3.005000	4883689.203240	2.211545e-08
3.010000	4893046.282800	3.388930e-08
3.015000	4902404.636557	2.797218e-08
3.020000	4911764.250418	2.950323e-08
3.025000	4921125.125768	3.474095e-08
3.030000	4930487.198070	2.908729e-08
3.035000	4939850.493917	2.137705e-08
3.040000	4949215.009832	2.849226e-08
3.045000	4958580.747418	2.365443e-08
3.050000	4967947.676649	2.727857e-08
3.055000	4977315.868638	2.522098e-08
3.060000	4986685.255983	2.476328e-08
3.065000	4996055.942924	2.805350e-08
3.070000	5005427.949637	2.982546e-08
3.075000	5014801.212660	2.812930e-08
3.080000	5024175.842422	2.327677e-08
3.085000	5033551.769525	3.218417e-08
3.090000	5042929.012900	2.852589e-08
3.095000	5052307.606180	2.949643e-08
3.100000	5061687.497711	2.904475e-08
3.105000	5071068.752543	3.131795e-08
3.110000	5080451.367858	3.362247e-08
3.115000	5089835.352966	3.255264e-08
3.120000	5099220.728626	2.564078e-08
3.125000	5108607.491061	3.187633e-08
3.130000	5117995.644174	3.025457e-08
3.135000	5127385.246149	2.709863e-08
3.140000	5136776.362908	3.328195e-08
3.145000	5146169.010991	3.157064e-08
3.150000	5155563.205863	3.172002e-08
3.155000	5164958.941558	2.969064e-08
3.160000	5174356.262451	3.038964e-08
3.165000	5183755.176732	3.520519e-08
3.170000	5193155.690105	2.695315e-08
3.175000	5202557.819893	3.261446e-08
3.180000	5211961.567413	2.656945e-08
3.185000	5221366.972776	3.470525e-08
3.190000	5230774.022850	3.322574e-08
3.195000	5240182.764519	3.842480e-08
3.200000	5249593.210734	2.998499e-08
3.205000	5259005.366780	3.321813e-08
3.210000	5268419.262275	3.168175e-08
3.215000	5277834.875469	3.393180e-08
3.220000	5287252.277780	3.810735e-08
3.225000	5296671.426754	3.119927e-08
3.230000	5306092.319033	3.177064e-08
3.235000	5315515.026202	2.811600e-08
3.240000	5324939.504321	3.087775e-08
3.245000	5334365.769247	3.023524e-08
3.250000	5343793.863883	2.772072e-08
3.255000	5353223.847224	3.191529e-08
3.260000	5362655.647806	3.085359e-08
3.265000	5372089.307470	3.549440e-08
3.270000	5381524.779211	3.332680e-08
3.275000	5390962.106764	3.229287e-08
3.280000	5400401.302231	3.626160e-08
3.285000	5409842.346843	3.195350e-08
3.290000	5419285.244732	3.355344e-08
3.295000	5428729.957688	2.685304e-08
3.300000	5438176.506670	3.247241e-08
3.305000	5447624.910022	2.886991e-08
3.310000	5457075.164916	3.062056e-08
3.315000	5466527.246069	3.130342e-08
3.320000	5475981.214655	3.049038e-08
3.325000	5485436.974050	3.447192e-08
3.330000	5494894.640512	3.058707e-08
3.335000	5504354.111157	3.145339e-08
3.340000	5513815.385913	3.183339e-08
3.345000	5523278.558709	3.390075e-08
3.350000	5532743.537148	3.395325e-08
3.355000	5542210.370504	3.751343e-08
3.360000	5551679.061329	3.410703e-08
3.365000	5561149.566983	3.404421e-08
3.370000	5570621.969369	3.413983e-08
3.375000	5580096.177206	3.773052e-08
3.380000	5589572.209772	3.238640e-08
3.385000	5599050.093476	2.761695e-08
3.390000	5608529.795756	2.691729e-08
3.395000	5618011.305783	2.840348e-08
3.400000	5627494.572373	3.298940e-08
3.405000	5636979.630111	2.660385e-08
3.410000	5646466.436944	2.805165e-08
3.415000	5655954.944570	2.818986e-08
3.420000	5665445.185880	2.569551e-08
3.425000	5674937.120993	1.936618e-08
3.430000	5684430.625579	1.746805e-08
3.435000	5693925.722554	2.549337e-08
3.440000	5703422.419502	1.439782e-08
3.445000	5712920.631924	1.960511e-08
3.450000	5722420.310712	2.412942e-08
3.455000	5731921.534412	2.400440e-08
3.460000	5741424.197444	2.158319e-08
3.465000	5750928.230598	1.698521e-08
3.470000	5760433.669873	1.324492e-08
3.475000	5769940.512351	1.920479e-08
3.480000	5779448.626000	1.407079e-08
3.485000	5788958.033830	1.590307e-08
3.490000	5798468.712172	9.769024e-09
3.495000	5807980.588203	1.394162e-08
3.500000	5817493.601244	1.205956e-08
3.505000	5827007.706133	1.557595e-08
3.510000	5836522.902452	1.249935e-08
3.515000	5846039.159409	8.020827e-09
3.520000	5855556.443883	7.873309e-09
3.525000	5865074.748421	3.451290e-09
3.530000	5874593.992067	5.550667e-09
3.535000	5884114.211207	1.166355e-08
3.540000	5893635.397959	1.098445e-08
3.545000	5903157.472763	9.251835e-09
3.550000	5912680.522438	6.325492e-09
3.555000	5922204.485525	1.087727e-08
3.560000	5931729.323576	5.934596e-09
3.565000	5941254.962042	4.336725e-09
3.570000	5950781.512515	1.287507e-08
3.575000	5960308.850228	-2.076812e-09
3.580000	5969837.023184	1.439734e-08
3.585000	5979366.018450	8.530794e-09
3.590000	5988895.840591	8.762059e-09
3.595000	5998426.456570	6.408357e-09
3.600000	6007957.828298	5.949995e-09
3.605000	6017489.969391	5.028977e-09
3.610000	6027022.893030	1.333976e-08
3.615000	6036556.530567	4.081431e-09
3.620000	6046090.863288	2.632813e-09
3.625000	6055625.922187	7.161571e-09
3.630000	6065161.712740	2.404768e-09
3.635000	6074698.166685	7.523507e-09
3.640000	6084235.321658	5.363229e-09
3.645000	6093773.137786	9.091212e-09
3.650000	6103311.595271	8.726279e-09
3.655000	6112850.681488	3.587070e-09
3.660000	6122390.363186	4.683155e-09
3.665000	6131930.688140	-9.406220e-10
3.670000	6141471.558941	-7.297432e-10
3.675000	6151013.022367	7.244016e-09
3.680000	6160555.098290	3.426889e-09
3.685000	6170097.693396	2.590795e-09
3.690000	6179640.811340	6.334124e-09
3.695000	6189184.501269	8.578419e-10
3.700000	6198728.720183	4.666619e-09
3.705000	6208273.506293	-2.377556e-09
3.710000	6217818.830624	6.397526e-09
3.715000	6227364.749561	1.410163e-09
3.720000	6236911.215506	-7.512276e-10
3.725000	6246458.229636	1.651872e-09
3.730000	6256005.760705	5.088962e-09
3.735000	6265553.823284	-5.066325e-09
3.740000	6275102.404599	-8.537300e-09
3.745000	6284651.530854	4.518428e-09
3.750000	6294201.191271	2.104324e-09
3.755000	6303751.347869	-5.582211e-10
3.760000	6313301.958292	6.073725e-12
3.765000	6322853.039358	-1.167590e-10
3.770000	6332404.606724	-4.455771e-09
3.775000	6341956.651682	-3.299882e-09
3.780000	6351509.127611	-2.255083e-09
3.785000	6361062.008596	-3.520087e-09
3.790000	6370615.280188	-3.112296e-09
3.795000	6380168.971575	4.232940e-09
3.800000	6389723.123131	1.774865e-09
3.805000	6399277.698862	-2.660599e-09
3.810000	6408832.684970	2.026698e-09
3.815000	6418388.072032	-2.426697e-09
3.820000	6427943.866455	-1.824572e-09
3.825000	6437500.071891	-3.219887e-09
3.830000	6447056.654575	1.047201e-09
3.835000	6456613.589974	1.461923e-09
3.840000	6466170.949094	2.020846e-09
3.845000	6475728.688114	-4.890713e-09
3.850000	6485286.737505	-1.965155e-09
3.855000	6494845.057315	-2.591594e-09
3.860000	6504403.652613	-4.466043e-09
3.865000	6513962.498851	-6.839947e-09
3.870000	6523521.608037	-5.448019e-09
3.875000	6533080.973833	-7.090006e-09
3.880000	6542640.542009	-4.509386e-09
3.885000	6552200.319502	-6.992071e-09
3.890000	6561760.333711	-5.997078e-09
3.895000	6571320.538706	-3.049333e-09
3.900000	6580880.919722	-6.802395e-09
3.905000	6590441.471859	-1.137215e-09
3.910000	6600002.191653	-6.580842e-09
3.915000	6609563.097945	-8.401523e-09
3.920000	6619124.106587	-8.820288e-09
3.925000	6628685.259691	-5.064184e-10
3.930000	6638246.550680	-1.396691e-08
3.935000	6647807.925818	-1.406990e-08
3.940000	6657369.371475	-9.047263e-09
3.945000	6666930.925548	-1.205041e-08
3.950000	6676492.528697	-6.456919e-09
3.955000	6686054.140812	-1.113975e-08
3.960000	6695615.791685	-7.228348e-09
3.965000	6705177.468316	-1.466756e-08
3.970000	6714739.042439	-1.480526e-08
3.975000	6724300.595464	-1.608245e-08
3.980000	6733862.096185	-1.583543e-08
3.985000	6743423.455166	-1.923513e-08
3.990000	6752984.756725	-1.955179e-08
3.995000	6762545.846002	-1.140594e-08
4.000000	6772106.815926	-2.404652e-08
4.005000	6781667.650912	-1.470977e-08
4.010000	6791228.241471	-1.236577e-08
4.015000	6800788.635889	-1.921344e-08
4.020000	6810348.745814	-1.787847e-08
4.025000	6819908.596186	-1.829903e-08
4.030000	6829468.165945	-1.796408e-08
4.035000	6839027.421847	-2.255390e-08
4.040000	6848586.364297	-2.082065e-08
4.045000	6858144.997040	-2.500105e-08
4.050000	6867703.302365	-2.258639e-08
4.055000	6877261.260216	-1.837821e-08
4.060000	6886818.856606	-1.853284e-08
4.065000	6896376.072772	-2.097853e-08
4.070000	6905932.900792	-2.058869e-08