0.000000	0.000000	6.097464e-06
0.005000	48.008656	1.401971e-06
0.010000	172.002112	1.619827e-06
0.015000	375.290983	1.613653e-06
0.020000	659.231297	1.569640e-06
0.025000	1022.136399	1.562565e-06
0.030000	1463.000992	1.548185e-06
0.035000	1980.901097	1.534015e-06
0.040000	2575.024277	1.512069e-06
0.045000	3244.496109	1.482424e-06
0.050000	3988.406069	1.477968e-06
0.055000	4805.879591	1.464209e-06
0.060000	5696.109271	1.451417e-06
0.065000	6658.242082	1.419988e-06
0.070000	7691.409906	1.405962e-06
0.075000	8794.758607	1.390112e-06
0.080000	9967.531118	1.375364e-06
0.085000	11208.864731	1.361435e-06
0.090000	12517.971036	1.344335e-06
0.095000	13894.060525	1.324955e-06
0.100000	15336.336480	1.308337e-06
0.105000	16844.037250	1.294948e-06
0.110000	18416.387301	1.278484e-06
0.115000	20052.636090	1.261214e-06
0.120000	21752.006200	1.252324e-06
0.125000	23513.769160	1.235148e-06
0.130000	25337.153946	1.222258e-06
0.135000	27221.488228	1.202295e-06
0.140000	29166.007477	1.189037e-06
0.145000	31170.020097	1.178877e-06
0.150000	33232.800778	1.159554e-06
0.155000	35353.662979	1.143811e-06
0.160000	37531.881493	1.137864e-06
0.165000	39766.790761	1.117372e-06
0.170000	42057.719097	1.101964e-06
0.175000	44403.980141	1.091180e-06
0.180000	46804.958306	1.082731e-06
0.185000	49259.942482	1.071880e-06
0.190000	51768.355897	1.048813e-06
0.195000	54329.520589	1.041599e-06
0.200000	56942.858158	1.027460e-06
0.205000	59607.701004	1.013235e-06
0.210000	62323.468921	1.008938e-06
0.215000	65089.587380	1.002544e-06
0.220000	67905.404041	9.846803e-07
0.225000	70770.381565	9.674723e-07
0.230000	73683.938583	9.526680e-07
0.235000	76645.491747	9.510904e-07
0.240000	79654.490019	9.380981e-07
0.245000	82710.377168	9.187637e-07
0.250000	85812.577363	9.155983e-07
0.255000	88960.584290	9.034102e-07
0.260000	92153.830582	8.929116e-07
0.265000	95391.828050	8.771755e-07
0.270000	98674.009900	8.699081e-07
0.275000	101999.908684	8.600420e-07
0.280000	105368.944489	8.524615e-07
0.285000	108780.665232	8.427213e-07
0.290000	112234.563338	8.308246e-07
0.295000	115730.161075	8.247336e-07
0.300000	119266.946294	8.170474e-07
0.305000	122844.456026	8.076006e-07
0.310000	126462.218511	7.943766e-07
0.315000	130119.771096	7.849444e-07
0.320000	133816.649933	7.807082e-07
0.325000	137552.396327	7.752635e-07
0.330000	141326.594803	7.617728e-07
0.335000	145138.778851	7.384596e-07
0.340000	148988.489082	7.464261e-07
0.345000	152875.326734	7.304999e-07
0.350000	156798.867642	7.186500e-07
0.355000	160758.684321	7.146655e-07
0.360000	164754.361710	7.060018e-07
0.365000	168785.455741	7.077767e-07
0.370000	172851.595419	6.894726e-07
0.375000	176952.377139	6.871305e-07
0.380000	181087.401457	6.780888e-07
0.385000	185256.280594	6.733538e-07
0.390000	189458.645433	6.695671e-07
0.395000	193694.149838	6.527200e-07
0.400000	197962.328919	6.552482e-07
0.405000	202262.891894	6.343554e-07
0.410000	206595.427687	6.283970e-07
0.415000	210959.591539	6.259806e-07
0.420000	215355.013427	6.222641e-07
0.425000	219781.338818	6.181521e-07
0.430000	224238.207525	6.024763e-07
0.435000	228725.273079	5.976043e-07
0.440000	233242.199357	5.880216e-07
0.445000	237788.651052	5.893713e-07
0.450000	242364.270629	5.764228e-07
0.455000	246968.733372	5.639132e-07
0.460000	251601.724726	5.662084e-07
0.465000	256262.918446	5.555382e-07
0.470000	260952.000297	5.532219e-07
0.475000	265668.620423	5.437314e-07
0.480000	270412.493911	5.389710e-07
0.485000	275183.287950	5.338650e-07
0.490000	279980.694685	5.227659e-07
0.495000	284804.386783	5.292246e-07
0.500000	289654.102309	5.187728e-07
0.505000	294529.515241	5.116991e-07
0.510000	299430.298527	5.040561e-07
0.515000	304356.234055	4.990063e-07
0.520000	309306.953520	4.872776e-07
0.525000	314282.219684	4.867048e-07
0.530000	319281.769134	4.880766e-07
0.535000	324305.306961	4.755566e-07
0.540000	329352.552230	4.706148e-07
0.545000	334423.214972	4.638297e-07
0.550000	339517.070359	4.629002e-07
0.555000	344633.819867	4.546823e-07
0.560000	349773.236208	4.498697e-07
0.565000	354935.036821	4.575047e-07
0.570000	360118.967109	4.474598e-07
0.575000	365324.806601	4.434998e-07
0.580000	370552.240553	4.346598e-07
0.585000	375801.038060	4.261547e-07
0.590000	381070.936332	4.305730e-07
0.595000	386361.717275	4.167648e-07
0.600000	391673.089466	4.199319e-07
0.605000	397004.823816	4.105599e-07
0.610000	402356.668897	4.007913e-07
0.615000	407728.367554	3.967242e-07
0.620000	413119.714144	3.909277e-07
0.625000	418530.445135	4.008436e-07
0.630000	423960.314571	3.797674e-07
0.635000	429409.107475	3.812845e-07
0.640000	434876.596450	3.791575e-07
0.645000	440362.525600	3.703455e-07
0.650000	445866.726751	3.802587e-07
0.655000	451388.950815	3.664671e-07
0.660000	456928.972071	3.619784e-07
0.665000	462486.583437	3.502696e-07
0.670000	468061.604521	3.509832e-07
0.675000	473653.810467	3.490260e-07
0.680000	479262.999785	3.393101e-07
0.685000	484888.955657	3.358973e-07
0.690000	490531.487997	3.350301e-07
0.695000	496190.369148	3.271863e-07
0.700000	501865.417698	3.266174e-07
0.705000	507556.412547	3.210171e-07
0.710000	513263.172391	3.119585e-07
0.715000	518985.482171	3.087546e-07
0.720000	524723.174245	3.088950e-07
0.725000	530476.029361	3.004750e-07
0.730000	536243.875592	3.067857e-07
0.735000	542026.495603	2.973064e-07
0.740000	547823.735902	2.946075e-07
0.745000	553635.392159	2.877677e-07
0.750000	559461.292327	2.848069e-07
0.755000	565301.255122	2.793605e-07
0.760000	571155.125229	2.769428e-07
0.765000	577022.728595	2.812674e-07
0.770000	582903.874149	2.770121e-07
0.775000	588798.398537	2.763034e-07
0.780000	594706.127836	2.701497e-07
0.785000	600626.921938	2.627378e-07
0.790000	606560.621086	2.652627e-07
0.795000	612507.034768	2.535522e-07
0.800000	618466.044682	2.596265e-07
0.805000	624437.473822	2.548300e-07
0.810000	630421.187157	2.528373e-07
0.815000	636417.044207	2.393345e-07
0.820000	642424.888411	2.389278e-07
0.825000	648444.622202	2.398588e-07
0.830000	654476.071654	2.349790e-07
0.835000	660519.112980	2.383623e-07
0.840000	666573.608990	2.418701e-07
0.845000	672639.444158	2.343820e-07
0.850000	678716.475343	2.175059e-07
0.855000	684804.570724	2.311509e-07
0.860000	690903.577701	2.224519e-07
0.865000	697013.413848	2.144708e-07
0.870000	703133.944707	2.139637e-07
0.875000	709265.016184	2.107575e-07
0.880000	715406.489193	2.187481e-07
0.885000	721558.287548	2.058160e-07
0.890000	727720.268067	2.084043e-07
0.895000	733892.295244	2.076707e-07
0.900000	740074.296452	1.978156e-07
0.905000	746266.142069	1.941193e-07
0.910000	752467.695284	1.971537e-07
0.915000	758678.849974	1.897910e-07
0.920000	764899.484219	1.929105e-07
0.925000	771129.523541	1.974619e-07
0.930000	777368.856391	1.926920e-07
0.935000	783617.339446	1.855791e-07
0.940000	789874.914753	1.855836e-07
0.945000	796141.449351	1.835891e-07
0.950000	802416.878495	1.919932e-07
0.955000	808701.109453	1.688280e-07
0.960000	814993.994616	1.713676e-07
0.965000	821295.473294	1.816141e-07
0.970000	827605.483771	1.808219e-07
0.975000	833923.896512	1.671111e-07
0.980000	840250.591139	1.718645e-07
0.985000	846585.544155	1.760268e-07
0.990000	852928.615813	1.676383e-07
0.995000	859279.724176	1.704073e-07
1.000000	865638.780819	1.622953e-07
1.005000	872005.727844	1.577046e-07
1.010000	878380.466037	1.600678e-07
1.015000	884762.915797	1.578033e-07
1.020000	891152.951998	1.590794e-07
1.025000	897550.505519	1.552047e-07
1.030000	903955.509477	1.523900e-07
1.035000	910367.860600	1.509545e-07
1.040000	916787.481952	1.488354e-07
1.045000	923214.289340	1.537319e-07
1.050000	929648.195718	1.366184e-07
1.055000	936089.131221	1.375746e-07
1.060000	942537.013002	1.356411e-07
1.065000	948991.754988	1.388826e-07
1.070000	955453.272411	1.472302e-07
1.075000	961921.478301	1.316943e-07
1.080000	968396.320735	1.425214e-07
1.085000	974877.671907	1.265513e-07
1.090000	981365.537763	1.245656e-07
1.095000	987859.780847	1.333281e-07
1.100000	994360.346590	1.298766e-07
1.105000	1000867.194422	1.398616e-07
1.110000	1007380.242300	1.252630e-07
1.115000	1013899.378526	1.245602e-07
1.120000	1020424.540878	1.251960e-07
1.125000	1026955.697724	1.150831e-07
1.130000	1033492.774196	1.227484e-07
1.135000	1040035.683268	1.171202e-07
1.140000	1046584.347039	1.212998e-07
1.145000	1053138.692171	1.192591e-07
1.150000	1059698.686379	1.157380e-07
1.155000	1066264.233937	1.170863e-07
1.160000	1072835.223568	1.177257e-07
1.165000	1079411.644519	1.176925e-07
1.170000	1085993.417368	1.122895e-07
1.175000	1092580.436634	1.113616e-07
1.180000	1099172.649261	1.156565e-07
1.185000	1105769.978448	1.047217e-07
1.190000	1112372.371259	1.052974e-07
1.195000	1118979.760542	1.086879e-07
1.200000	1125592.079312	1.036285e-07
1.205000	1132209.260344	1.009534e-07
1.210000	1138831.258661	9.934560e-08
1.215000	1145458.000339	1.019428e-07
1.220000	1152089.436894	1.051301e-07
1.225000	1158725.525805	1.016864e-07
1.230000	1165366.210120	9.508614e-08
1.235000	1172011.458082	9.756214e-08
1.240000	1178661.233841	9.514931e-08
1.245000	1185315.478663	9.460968e-08
1.250000	1191974.132280	9.253721e-08
1.255000	1198637.113002	9.589206e-08
1.260000	1205304.423796	9.295487e-08
1.265000	1211975.957626	8.583928e-08
1.270000	1218651.698132	9.565197e-08
1.275000	1225331.616200	9.326463e-08
1.280000	1232015.659620	9.153111e-08
1.285000	1238703.744467	8.965789e-08
1.290000	1245395.829601	9.185950e-08
1.295000	1252091.849505	9.490221e-08
1.300000	1258791.790038	8.857006e-08
1.305000	1265495.543200	8.397453e-08
1.310000	1272203.120554	8.706554e-08
1.315000	1278914.533502	7.239895e-08
1.320000	1285629.627814	7.905920e-08
1.325000	1292348.418825	7.471400e-08
1.330000	1299070.852706	6.584480e-08
1.335000	1305796.889141	7.238497e-08
1.340000	1312526.483066	7.883031e-08
1.345000	1319259.597036	7.178118e-08
1.350000	1325996.144127	7.365940e-08
1.355000	1332736.110786	7.513579e-08
1.360000	1339479.446122	7.296203e-08
1.365000	1346226.165017	7.352305e-08
1.370000	1352976.149029	6.961019e-08
1.375000	1359729.322337	6.934119e-08
1.380000	1366485.667359	7.276251e-08
1.385000	1373245.137069	6.619787e-08
1.390000	1380007.685000	6.532463e-08
1.395000	1386773.268729	6.721378e-08
1.400000	1393541.840332	5.869711e-08
1.405000	1400313.375205	5.850376e-08
1.410000	1407087.797584	6.953596e-08
1.415000	1413865.097376	6.573537e-08
1.420000	1420645.202007	6.641312e-08
1.425000	1427428.024013	5.729875e-08
1.430000	1434213.592141	5.401522e-08
1.435000	1441001.831622	5.519535e-08
1.440000	1447792.647339	5.094483e-08
1.445000	1454586.012214	5.996789e-08
1.450000	1461381.979537	4.330006e-08
1.455000	1468180.428061	5.951326e-08
1.460000	1474981.347921	5.882306e-08
1.465000	1481784.636287	4.865962e-08
1.470000	1488590.337721	5.418106e-08
1.475000	1495398.414063	5.315122e-08
1.480000	1502208.803346	4.389371e-08
1.485000	1509021.478444	5.491761e-08
1.490000	1515836.377026	5.104361e-08
1.495000	1522653.525354	4.284839e-08
1.500000	1529472.834894	5.039006e-08
1.505000	1536294.313930	4.465570e-08
1.510000	1543117.917987	4.204535e-08
1.515000	1549943.614995	3.712403e-08
1.520000	1556771.352700	5.270092e-08
1.525000	1563601.149302	4.731005e-08
1.530000	1570432.950350	3.630548e-08
1.535000	1577266.730869	4.586560e-08
1.540000	1584102.487615	5.065508e-08
1.545000	1590940.183077	4.382694e-08
1.550000	1597779.758712	4.117500e-08
1.555000	1604621.172218	4.175185e-08
1.560000	1611464.431493	3.872914e-08
1.565000	1618309.519656	3.318791e-08
1.570000	1625156.357158	4.176340e-08
1.575000	1632004.958289	3.596682e-08
1.580000	1638855.281675	3.500358e-08
1.585000	1645707.354885	3.922377e-08
1.590000	1652561.151221	3.726771e-08
1.595000	1659416.659483	3.666737e-08
1.600000	1666273.872506	3.345478e-08
1.605000	1673132.750647	3.298808e-08
1.610000	1679993.314576	3.977343e-08
1.615000	1686855.548584	2.937147e-08
1.620000	1693719.426853	3.141375e-08
1.625000	1700584.950967	3.656960e-08
1.630000	1707452.087367	3.590011e-08
1.635000	1714320.818368	3.602676e-08
1.640000	1721191.149573	3.645220e-08
1.645000	1728063.038526	4.231736e-08
1.650000	1734936.518493	3.900990e-08
1.655000	1741811.581938	3.381838e-08
1.660000	1748688.189262	3.815322e-08
1.665000	1755566.353578	2.864395e-08
1.670000	1762446.081883	2.999040e-08
1.675000	1769327.348678	3.881137e-08
1.680000	1776210.175498	3.661109e-08
1.685000	1783094.496041	2.454313e-08
1.690000	1789980.361310	3.675577e-08
1.695000	1796867.765720	3.319032e-08
1.700000	1803756.688733	3.182891e-08
1.705000	1810647.121494	3.811316e-08
1.710000	1817539.079953	3.160141e-08
1.715000	1824432.496389	3.306666e-08
1.720000	1831327.371216	2.932085e-08
1.725000	1838223.712880	3.551645e-08
1.730000	1845121.512449	3.836475e-08
1.735000	1852020.774476	3.132024e-08
1.740000	1858921.432338	2.895908e-08
1.745000	1865823.463988	3.087666e-08
1.750000	1872726.892743	2.764535e-08
1.755000	1879631.701661	2.722896e-08
1.760000	1886537.845738	3.418637e-08
1.765000	1893445.324827	2.737892e-08
1.770000	1900354.156612	3.551731e-08
1.775000	1907264.267541	2.891174e-08
1.780000	1914175.669880	3.275242e-08
1.785000	1921088.379019	3.388709e-08
1.790000	1928002.323323	3.602293e-08
1.795000	1934917.504261	3.176430e-08
1.800000	1941833.899210	3.135086e-08
1.805000	1948751.550462	3.014161e-08
1.810000	1955670.417014	3.491919e-08
1.815000	1962590.462401	3.217489e-08
1.820000	1969511.659782	3.106968e-08
1.825000	1976434.092895	2.753285e-08
1.830000	1983357.675225	3.115431e-08
1.835000	1990282.404834	3.388807e-08
1.840000	1997208.268834	3.427988e-08
1.845000	2004135.250762	2.989419e-08
1.850000	2011063.339401	2.411698e-08
1.855000	2017992.530635	3.106576e-08
1.860000	2024922.807690	2.954078e-08
1.865000	2031854.140687	1.677972e-08
1.870000	2038786.525705	3.551233e-08
1.875000	2045719.968731	3.504613e-08
1.880000	2052654.442660	1.979047e-08
1.885000	2059589.970290	2.484764e-08
1.890000	2066526.510967	2.838296e-08
1.895000	2073464.067279	3.392143e-08
1.900000	2080402.673096	2.123989e-08
1.905000	2087342.276794	3.446351e-08
1.910000	2094282.848694	2.680288e-08
1.915000	2101224.410724	2.858732e-08
1.920000	2108166.924044	2.612534e-08
1.925000	2115110.353247	3.183004e-08
1.930000	2122054.729615	2.994131e-08
1.935000	2128999.998921	3.177998e-08
1.940000	2135946.140719	2.018939e-08
1.945000	2142893.127873	1.604421e-08
1.950000	2149840.967233	2.772728e-08
1.955000	2156789.631622	2.553231e-08
1.960000	2163739.111856	3.218985e-08
1.965000	2170689.406892	2.168290e-08
1.970000	2177640.497700	2.803456e-08
1.975000	2184592.352079	2.776435e-08
1.980000	2191544.950161	2.072556e-08
1.985000	2198498.313265	2.841104e-08
1.990000	2205452.363459	1.895682e-08
1.995000	2212407.101531	2.273499e-08
2.000000	2219362.524047	3.003117e-08
2.005000	2226318.602278	2.350525e-08
2.010000	2233275.361462	1.980326e-08
2.015000	2240232.763934	2.410926e-08
2.020000	2247190.787677	2.205099e-08
2.025000	2254149.461464	1.589325e-08
2.030000	2261108.743869	2.059475e-08
2.035000	2268068.604184	2.100903e-08
2.040000	2275029.103573	2.812251e-08
2.045000	2281990.166160	2.127524e-08
2.050000	2288951.817105	2.028158e-08
2.055000	2295914.014782	2.169060e-08
2.060000	2302876.775634	2.516233e-08
2.065000	2309840.100876	2.141528e-08
2.070000	2316803.898431	2.360916e-08
2.075000	2323768.228112	1.554937e-08
2.080000	2330733.041045	2.891577e-08
2.085000	2337698.302024	1.980729e-08
2.090000	2344664.054107	2.089529e-08
2.095000	2351630.225326	1.849453e-08
2.100000	2358596.848008	1.503218e-08
2.105000	2365563.877304	2.197164e-08
2.110000	2372531.308980	1.819920e-08
2.115000	2379499.163918	1.790633e-08
2.120000	2386467.382601	2.270694e-08
2.125000	2393435.976602	1.529146e-08
2.130000	2400404.985276	1.140635e-08
2.135000	2407374.333747	1.836179e-08
2.140000	2414343.982289	1.191729e-08
2.145000	2421313.987460	1.917433e-08
2.150000	2428284.331079	9.989857e-09
2.155000	2435254.993264	1.695148e-08
2.160000	2442225.977570	1.244527e-08
2.165000	2449197.276904	1.293546e-08
2.170000	2456168.909958	1.893974e-08
2.175000	2463140.818102	8.131722e-09
2.180000	2470113.045195	1.368508e-08
2.185000	2477085.548053	4.260665e-09
2.190000	2484058.334814	9.351332e-09
2.195000	2491031.392112	1.333498e-08
2.200000	2498004.717394	6.544162e-09
2.205000	2504978.257671	9.864079e-09
2.210000	2511952.076291	1.092550e-08
2.215000	2518926.101037	8.516807e-09
2.220000	2525900.328970	1.622081e-08
2.225000	2532874.718071	9.313166e-09
2.230000	2539849.299640	3.832248e-09
2.235000	2546824.010321	9.276317e-09
2.240000	2553798.860485	6.980679e-09
2.245000	2560773.850372	7.530008e-09
2.250000	2567748.961157	7.682822e-09
2.255000	2574724.186521	3.321413e-09
2.260000	2581699.514443	5.317771e-09
2.265000	2588674.958615	1.037029e-08
2.270000	2595650.499699	5.933164e-10
2.275000	2602626.124530	1.147641e-08
2.280000	2609601.832348	1.010076e-08
2.285000	2616577.679670	9.064795e-10
2.290000	2623553.561791	2.601499e-09
2.295000	2630529.579608	9.250304e-09
2.300000	2637505.711796	9.560701e-09
2.305000	2644481.951272	7.291422e-09
2.310000	2651458.319867	6.000586e-09
2.315000	2658434.785033	1.339740e-08
2.320000	2665411.422980	2.824432e-09
2.325000	2672388.189965	-2.592281e-09
2.330000	2679365.104439	1.853501e-09
2.335000	2686342.162249	7.441590e-09
2.340000	2693319.394746	5.272894e-09
2.345000	2700296.820807	1.318754e-08
2.350000	2707274.399296	1.131557e-08
2.355000	2714252.221528	1.222199e-08
2.360000	2721230.234048	4.635423e-09
2.365000	2728208.463367	9.134387e-09
2.370000	2735186.905111	1.092837e-08
2.375000	2742165.597378	9.284756e-09
2.380000	2749144.516453	8.037393e-09
2.385000	2756123.705400	1.112906e-08
2.390000	2763103.154196	4.631231e-09
2.395000	2770082.884390	6.743940e-09
2.400000	2777062.914820	5.989809e-09
2.405000	2784043.247203	1.786876e-08
2.410000	2791023.882956	1.406678e-08
2.415000	2798004.825549	4.296635e-09
2.420000	2804986.051387	1.010237e-08
2.425000	2811967.603808	1.803596e-08
2.430000	2818949.504517	1.755066e-08
2.435000	2825931.766920	6.314267e-09
2.440000	2832914.343808	1.013296e-08
2.445000	2839897.264830	5.883883e-09
2.450000	2846880.576377	8.812037e-09
2.455000	2853864.220935	9.268631e-09
2.460000	2860848.199526	1.972513e-08
2.465000	2867832.543766	5.673707e-10
2.470000	2874817.229509	1.083125e-08
2.475000	2881802.279318	1.269227e-08
2.480000	2888787.685560	1.160726e-09
2.485000	2895773.416960	1.521330e-08
2.490000	2902759.500019	1.295235e-08
2.495000	2909745.921553	9.591392e-09
2.500000	2916732.690706	9.133054e-09
2.505000	2923719.812048	6.832258e-09
2.510000	2930707.319349	1.773247e-08
2.515000	2937695.204288	5.379812e-09
2.520000	2944683.445859	2.214166e-08
2.525000	2951672.098007	1.333590e-08
2.530000	2958661.148245	1.445257e-08
2.535000	2965650.626298	1.312088e-08
2.540000	2972640.524672	1.427388e-08
2.545000	2979630.845129	1.444363e-08
2.550000	2986621.589856	1.620348e-08
2.555000	2993612.767701	1.599367e-08
2.560000	3000604.422427	1.006513e-08
2.565000	3007596.527563	1.760827e-08
2.570000	3014589.105015	6.667302e-09
2.575000	3021582.106639	2.153729e-08
2.580000	3028575.609565	1.595082e-08
2.585000	3035569.572952	1.843823e-08
2.590000	3042564.015605	1.008180e-08
2.595000	3049558.935012	1.687545e-08
2.600000	3056554.368165	2.360365e-08
2.605000	3063550.307813	1.589457e-08
2.610000	3070546.748782	1.138446e-08
2.615000	3077543.722360	1.219022e-08
2.620000	3084541.251134	1.337324e-08
2.625000	3091539.312822	2.161349e-08
2.630000	3098537.901385	8.952462e-09
2.635000	3105537.043443	2.073613e-08
2.640000	3112536.791508	4.869239e-09
2.645000	3119537.091976	2.205978e-08
2.650000	3126537.946103	1.589713e-08
2.655000	3133539.408096	1.633188e-08
2.660000	3140541.483458	1.936659e-08
2.665000	3147544.161473	1.766171e-08
2.670000	3154547.427267	1.761083e-08
2.675000	3161551.275109	1.783605e-08
2.680000	3168555.729922	2.054795e-08
2.685000	3175560.745371	1.442016e-08
2.690000	3182566.326368	1.152184e-08
2.695000	3189572.478951	2.479889e-08
2.700000	3196579.191011	2.178765e-08
2.705000	3203586.423817	2.402950e-08
2.710000	3210594.187898	1.648762e-08
2.715000	3217602.496086	2.084719e-08
2.720000	3224611.288374	2.229263e-08
2.725000	3231620.591828	1.292431e-08
2.730000	3238630.374957	3.011427e-08
2.735000	3245640.650064	1.471659e-08
2.740000	3252651.343290	1.556887e-08
2.745000	3259662.520255	1.578280e-08
2.750000	3266674.149518	5.582815e-09
2.755000	3273686.173769	1.901123e-08
2.760000	3280698.587582	1.984519e-08
2.765000	3287711.416955	1.566697e-08
2.770000	3294724.616622	4.362587e-09
2.775000	3301738.156908	1.773727e-08
2.780000	3308752.013631	8.891575e-09
2.785000	3315766.229454	1.913466e-08
2.790000	3322780.704171	1.861407e-08
2.795000	3329795.438452	1.577405e-08
2.800000	3336810.479099	2.377086e-08
2.805000	3343825.749876	2.220374e-08
2.810000	3350841.274382	1.118586e-08
2.815000	3357857.029966	1.509031e-08
2.820000	3364873.002087	1.726897e-08
2.825000	3371889.206410	1.866068e-08
2.830000	3378905.593798	9.937997e-09
2.835000	3385922.203712	1.303200e-08
2.840000	3392938.965624	9.017442e-09
2.845000	3399955.888265	1.277047e-08
2.850000	3406972.999475	1.419243e-08
2.855000	3413990.265984	1.223726e-08
2.860000	3421007.703668	2.254004e-09
2.865000	3428025.254504	1.541017e-08
2.870000	3435042.969799	1.713219e-08
2.875000	3442060.791388	1.563707e-08
2.880000	3449078.706630	5.547711e-09
2.885000	3456096.760548	1.391833e-08
2.890000	3463114.899805	1.607644e-08
2.895000	3470133.129537	5.740320e-09
2.900000	3477151.464384	8.097975e-09
2.905000	3484169.896289	1.197510e-08
2.910000	3491188.416359	7.528797e-09
2.915000	3498206.997383	1.119039e-08
2.920000	3505225.694714	1.317240e-08
2.925000	3512244.442844	5.743405e-09
2.930000	3519263.258505	1.608458e-08
2.935000	3526282.131499	1.215923e-08
2.940000	3533301.118697	8.681412e-09
2.945000	3540320.151405	1.720058e-08
2.950000	3547339.247549	9.965728e-09
2.955000	3554358.456605	9.762940e-09
2.960000	3561377.759074	1.742622e-08
2.965000	3568397.122414	2.392378e-08
2.970000	3575416.558725	1.329137e-08
2.975000	3582436.099963	1.083700e-08
2.980000	3589455.717598	1.407716e-08
2.985000	3596475.410705	1.785897e-08
2.990000	3603495.165129	8.321169e-09
2.995000	3610514.930918	1.033985e-08
3.000000	3617534.807542	5.084732e-09
3.005000	3624554.758091	1.376003e-08
3.010000	3631574.769538	1.332059e-08
3.015000	3638594.822720	2.422809e-09
3.020000	3645614.919698	1.253282e-08
3.025000	3652635.047948	1.127331e-08
3.030000	3659655.231344	1.639784e-08
3.035000	3666675.466719	9.196763e-09
3.040000	3673695.684378	6.375047e-09
3.045000	3680715.878655	7.360831e-09
3.050000	3687736.086287	3.204045e-09
3.055000	3694756.293918	7.252516e-09
3.060000	3701776.464839	3.581721e-09
3.065000	3708796.610513	7.308831e-09
3.070000	3715816.690331	-2.912540e-10
3.075000	3722836.727928	6.635482e-10
3.080000	3729856.675572	-4.072242e-10
3.085000	3736876.542232	1.390057e-09
3.090000	3743896.326440	2.540920e-09
3.095000	3750916.042126	1.242299e-08
3.100000	3757935.665016	5.567484e-09
3.105000	3764955.154871	9.705738e-09
3.110000	3771974.514149	8.724577e-09
3.115000	3778993.752797	-7.453698e-10
3.120000	3786012.834961	5.720881e-09
3.125000	3793031.742974	8.615065e-09
3.130000	3800050.482833	-1.413161e-10
3.135000	3807069.049419	7.474377e-09
3.140000	3814087.425881	-2.625608e-10
3.145000	3821105.602913	5.497301e-09
3.150000	3828123.518895	-2.741800e-09
3.155000	3835141.208454	4.437655e-09
3.160000	3842158.620382	-1.201778e-09
3.165000	3849175.736668	2.430952e-10
3.170000	3856192.543034	1.788152e-09
3.175000	3863209.098945	-1.550024e-10
3.180000	3870225.370444	-3.261664e-09
3.185000	3877241.350598	2.172928e-10
3.190000	3884256.999687	-1.511606e-09
3.195000	3891272.359052	1.775521e-09
3.200000	3898287.403596	-3.356978e-09
3.205000	3905302.127123	-2.223742e-09
3.210000	3912316.542999	-4.959109e-09
3.215000	3919330.644339	7.462197e-09
3.220000	3926344.392669	8.447037e-09
3.225000	3933357.795162	2.983032e-09
3.230000	3940370.874317	-2.157858e-09
3.235000	3947383.619293	-2.339908e-09
3.240000	3954396.014392	-4.705624e-09
3.245000	3961408.089249	4.195147e-09
3.250000	3968419.749675	2.244858e-09
3.255000	3975431.037903	2.570534e-09
3.260000	3982441.960687	-6.322457e-09
3.265000	3989452.477734	-3.262047e-09
3.270000	3996462.587502	-6.311676e-09
3.275000	4003472.309709	-8.790421e-09
3.280000	4010481.614113	-8.135273e-09
3.285000	4017490.496789	-1.132990e-08
3.290000	4024498.936069	-6.667231e-09
3.295000	4031506.934943	-3.542121e-09
3.300000	4038514.522525	-7.464762e-10
3.305000	4045521.664595	-5.059982e-09
3.310000	4052528.395082	-1.272849e-08
3.315000	4059534.691655	-3.691359e-10
3.320000	4066540.530564	-1.246311e-08
3.325000	4073545.918911	-4.719578e-09
3.330000	4080550.887972	-8.425868e-09
3.335000	4087555.403479	-1.040207e-08
3.340000	4094559.475040	-4.724681e-09
3.345000	4101563.071545	-8.534394e-09
3.350000	4108566.190157	-5.447120e-10
3.355000	4115568.903252	-5.612958e-09
3.360000	4122571.172338	-3.366604e-09
3.365000	4129572.966274	-1.661110e-09
3.370000	4136574.384613	-3.356737e-09
3.375000	4143575.382978	-5.138330e-09
3.380000	4150575.909307	-3.600690e-09
3.385000	4157576.048351	2.204449e-09
3.390000	4164575.806797	-1.624637e-08
3.395000	4171575.157426	1.429794e-09
3.400000	4178574.099278	-8.714955e-09
3.405000	4185572.678288	-4.328846e-09
3.410000	4192570.885707	-7.201339e-10
3.415000	4199568.729689	-4.146627e-09
3.420000	4206566.181535	-1.082695e-08
3.425000	4213563.276265	2.825457e-09
3.430000	4220560.061945	-7.034882e-09
3.435000	4227556.573775	-4.095441e-09
3.440000	4234552.775515	3.664943e-10
3.445000	4241548.688077	-4.208916e-09
3.450000	4248544.345479	-3.144108e-10
3.455000	4255539.741986	-8.774530e-09
3.460000	4262534.964156	-2.700360e-09
3.465000	4269529.988932	-1.155095e-08
3.470000	4276524.824321	-2.807125e-09
3.475000	4283519.469046	-1.216809e-09
3.480000	4290514.020361	-5.708450e-09
3.485000	4297508.456536	4.924860e-09
3.490000	4304502.768958	6.278332e-09
3.495000	4311496.946928	1.941200e-09
3.500000	4318491.065905	5.659702e-09
3.505000	4325485.137070	3.213071e-09
3.510000	4332479.194042	-6.837371e-09
3.515000	4339473.237484	-4.762023e-09
3.520000	4346467.238108	4.124934e-09
3.525000	4353461.218580	3.810763e-09
3.530000	4360455.258479	3.970331e-09
3.535000	4367449.356302	6.146211e-09
3.540000	4374443.520489	-2.716437e-09
3.545000	4381437.766006	5.042621e-10
3.550000	4388432.099413	2.553519e-09
3.555000	4395426.599925	8.495053e-09
3.560000	4402421.227744	1.171912e-08
3.565000	4409416.012364	9.658520e-09
3.570000	4416411.004713	8.961791e-09
3.575000	4423406.185069	2.411993e-09
3.580000	4430401.588122	6.839639e-09
3.585000	4437397.228323	-3.564328e-09
3.590000	4444393.113746	2.771189e-09
3.595000	4451389.265216	3.931475e-09
3.600000	4458385.725171	-1.606874e-09
3.605000	4465382.519902	8.990781e-09
3.610000	4472379.646221	2.197822e-09
3.615000	4479377.140875	9.359463e-09
3.620000	4486375.010235	3.803008e-09
3.625000	4493373.281519	9.051933e-09
3.630000	4500372.000792	9.521729e-09
3.635000	4507371.187351	1.017158e-08
3.640000	4514370.865037	1.093878e-08
3.645000	4521371.071259	5.270447e-09
3.650000	4528371.817244	1.412414e-08
3.655000	4535373.142156	1.049469e-08
3.660000	4542375.073512	4.461226e-09
3.665000	4549377.612400	2.818410e-09
3.670000	4556380.761628	9.586568e-09
3.675000	4563384.536856	7.818313e-09
3.680000	4570388.974763	1.724350e-08
3.685000	4577394.053832	8.141124e-09
3.690000	4584399.800035	6.864558e-09
3.695000	4591406.211079	7.552375e-09
3.700000	4598413.301080	7.530966e-09
3.705000	4605421.131049	1.461844e-08
3.710000	4612429.671842	9.763386e-09
3.715000	4619438.923035	1.774712e-08
3.720000	4626448.910467	4.715410e-09
3.725000	4633459.613584	5.526637e-09
3.730000	4640471.027823	1.445132e-08
3.735000	4647483.194951	4.171345e-09
3.740000	4654496.089344	1.337313e-08
3.745000	4661509.762133	8.009598e-09
3.750000	4668524.157981	1.131348e-08
3.755000	4675539.262708	1.045391e-08
3.760000	4682555.144086	1.131716e-08
3.765000	4689571.752178	2.165794e-08
3.770000	4696589.089660	1.909476e-08
3.775000	4703607.134281	8.637853e-09
3.780000	4710625.999332	8.807705e-09
3.785000	4717645.588975	1.369575e-08
3.790000	4724665.927580	1.131079e-08
3.795000	4731687.032539	1.873909e-08
3.800000	4738708.936184	2.110651e-08
3.805000	4745731.617506	8.521066e-09
3.810000	4752755.064544	2.069667e-08
3.815000	4759779.288320	1.491354e-08
3.820000	4766804.353555	1.137951e-08
3.825000	4773830.225408	1.291206e-08
3.830000	4780856.901803	1.860236e-08
3.835000	4787884.368350	1.802230e-08
3.840000	4794912.650481	1.546336e-08
3.845000	4801941.732238	1.395873e-08
3.850000	4808971.669214	1.385332e-08
3.855000	4816002.413267	1.965189e-08
3.860000	4823034.009633	1.453653e-08
3.865000	4830066.472074	1.013703e-08
3.870000	4837099.758021	2.429346e-08
3.875000	4844133.892986	1.711960e-08
3.880000	4851168.926404	5.315707e-09
3.885000	4858204.817528	2.177249e-08
3.890000	4865241.567506	2.350502e-08
3.895000	4872279.233774	1.055093e-08
3.900000	4879317.785894	2.657803e-08
3.905000	4886357.236065	2.344253e-08
3.910000	4893397.588004	1.622518e-08
3.915000	4900438.843602	1.557618e-08
3.920000	4907481.073195	1.286694e-08
3.925000	4914524.227128	2.187351e-08
3.930000	4921568.289751	7.380258e-09
3.935000	4928613.343893	2.142888e-08
3.940000	4935659.316588	7.514937e-09
3.945000	4942706.227378	1.468946e-08
3.950000	4949754.109464	1.815553e-08
3.955000	4956802.939816	1.474416e-08
3.960000	4963852.690568	1.568712e-08
3.965000	4970903.373830	1.593878e-08
3.970000	4977954.980340	1.523025e-08
3.975000	4985007.529274	2.165428e-08
3.980000	4992060.976352	1.495915e-08
3.985000	4999115.328589	1.487978e-08
3.990000	5006170.554280	1.286540e-08
3.995000	5013226.717273	2.175038e-08
4.000000	5020283.756194	2.042723e-08
4.005000	5027341.658141	2.132969e-08
4.010000	5034400.452823	1.676666e-08
4.015000	5041460.181257	1.967954e-08
4.020000	5048520.774261	1.190013e-08
4.025000	5055582.214581	1.861350e-08
4.030000	5062644.549827	9.452693e-09
4.035000	5069707.745395	1.646012e-08
4.040000	5076771.774278	2.244836e-08
4.045000	5083836.654903	1.180679e-08
4.050000	5090902.341194	1.040715e-08
4.055000	5097968.880170	1.024778e-08
4.060000	5105036.231816	1.655970e-08
4.065000	5112104.395290	1.615209e-08
4.070000	5119173.334046	1.335942e-08
4.075000	5126243.047576	2.169820e-08
4.080000	5133313.524315	1.044772e-08