0.000000	0.000000	6.178769e-06
0.005000	47.196094	1.421332e-06
0.010000	169.979346	1.554521e-06
0.015000	369.306356	1.598244e-06
0.020000	647.842654	1.559848e-06
0.025000	1004.332026	1.555142e-06
0.030000	1437.688988	1.526555e-06
0.035000	1947.052658	1.512541e-06
0.040000	2531.635035	1.496922e-06
0.045000	3190.702421	1.481899e-06
0.050000	3923.487330	1.462855e-06
0.055000	4729.206321	1.452820e-06
0.060000	5607.087881	1.441347e-06
0.065000	6556.371732	1.418875e-06
0.070000	7576.352526	1.409077e-06
0.075000	8666.284156	1.388990e-06
0.080000	9825.383364	1.374547e-06
0.085000	11052.948452	1.360249e-06
0.090000	12348.270033	1.348817e-06
0.095000	13710.626808	1.333921e-06
0.100000	15139.302295	1.316945e-06
0.105000	16633.603007	1.309075e-06
0.110000	18192.774703	1.290521e-06
0.115000	19816.192877	1.274204e-06
0.120000	21503.173363	1.270590e-06
0.125000	23253.029532	1.257760e-06
0.130000	25065.072307	1.242859e-06
0.135000	26938.661452	1.217129e-06
0.140000	28873.157292	1.210731e-06
0.145000	30867.895839	1.197472e-06
0.150000	32922.223264	1.184573e-06
0.155000	35035.515372	1.168730e-06
0.160000	37207.176335	1.155145e-06
0.165000	39436.570983	1.150720e-06
0.170000	41723.067777	1.138162e-06
0.175000	44066.071186	1.117373e-06
0.180000	46464.977860	1.113866e-06
0.185000	48919.209935	1.109674e-06
0.190000	51428.169743	1.093468e-06
0.195000	53991.256751	1.074352e-06
0.200000	56607.944348	1.066428e-06
0.205000	59277.614434	1.054884e-06
0.210000	61999.713416	1.045668e-06
0.215000	64773.707479	1.029454e-06
0.220000	67599.005230	1.022044e-06
0.225000	70475.076848	1.015178e-06
0.230000	73401.360310	9.921112e-07
0.235000	76377.320541	9.899103e-07
0.240000	79402.435724	9.853291e-07
0.245000	82476.150060	9.673089e-07
0.250000	85597.966907	9.565440e-07
0.255000	88767.350184	9.428441e-07
0.260000	91983.779269	9.342671e-07
0.265000	95246.752537	9.394754e-07
0.270000	98555.770015	9.164810e-07
0.275000	101910.323434	9.081858e-07
0.280000	105309.963354	9.025042e-07
0.285000	108754.170673	8.905868e-07
0.290000	112242.453122	8.778757e-07
0.295000	115774.315820	8.693500e-07
0.300000	119349.343124	8.636783e-07
0.305000	122967.041363	8.551400e-07
0.310000	126626.968688	8.386804e-07
0.315000	130328.666337	8.303984e-07
0.320000	134071.686133	8.313429e-07
0.325000	137855.602381	8.036854e-07
0.330000	141679.941813	8.079249e-07
0.335000	145544.260347	7.924829e-07
0.340000	149448.162364	7.878959e-07
0.345000	153391.174734	7.878602e-07
0.350000	157372.895821	7.696886e-07
0.355000	161392.885915	7.613317e-07
0.360000	165450.728025	7.581009e-07
0.365000	169546.034699	7.445224e-07
0.370000	173678.362950	7.335330e-07
0.375000	177847.336679	7.357943e-07
0.380000	182052.523102	7.172854e-07
0.385000	186293.496850	7.139202e-07
0.390000	190569.910319	7.059637e-07
0.395000	194881.339525	6.970408e-07
0.400000	199227.408031	6.841646e-07
0.405000	203607.713130	6.948235e-07
0.410000	208021.878898	6.760088e-07
0.415000	212469.542104	6.672571e-07
0.420000	216950.336601	6.646202e-07
0.425000	221463.924597	6.599741e-07
0.430000	226009.931964	6.500379e-07
0.435000	230588.025733	6.456147e-07
0.440000	235197.813326	6.365789e-07
0.445000	239838.996832	6.191205e-07
0.450000	244511.248287	6.101172e-07
0.455000	249214.187228	6.175552e-07
0.460000	253947.480177	6.034963e-07
0.465000	258710.818414	5.961835e-07
0.470000	263503.836985	5.991551e-07
0.475000	268326.257742	5.879568e-07
0.480000	273177.766457	5.786012e-07
0.485000	278058.023018	5.705692e-07
0.490000	282966.678340	5.616829e-07
0.495000	287903.454429	5.609453e-07
0.500000	292868.058204	5.523054e-07
0.505000	297860.163631	5.508265e-07
0.510000	302879.469364	5.420687e-07
0.515000	307925.672148	5.383989e-07
0.520000	312998.490567	5.245853e-07
0.525000	318097.608017	5.289415e-07
0.530000	323222.736445	5.187968e-07
0.535000	328373.602426	5.176283e-07
0.540000	333549.894074	5.100446e-07
0.545000	338751.328324	5.076459e-07
0.550000	343977.644477	4.965905e-07
0.555000	349228.553412	5.021419e-07
0.560000	354503.787602	4.830988e-07
0.565000	359803.066033	4.797530e-07
0.570000	365126.102780	4.831660e-07
0.575000	370472.688934	4.745832e-07
0.580000	375842.502234	4.674994e-07
0.585000	381235.285303	4.630506e-07
0.590000	386650.778301	4.625287e-07
0.595000	392088.726640	4.471369e-07
0.600000	397548.874801	4.432230e-07
0.605000	403030.972057	4.333293e-07
0.610000	408534.747543	4.348667e-07
0.615000	414059.961999	4.250961e-07
0.620000	419606.403890	4.279568e-07
0.625000	425173.821863	4.125821e-07
0.630000	430761.962978	4.135325e-07
0.635000	436370.627103	4.028170e-07
0.640000	441999.555162	3.969051e-07
0.645000	447648.509863	4.009557e-07
0.650000	453317.302191	3.882649e-07
0.655000	459005.691478	3.861805e-07
0.660000	464713.461120	3.904121e-07
0.665000	470440.412262	3.783943e-07
0.670000	476186.301887	3.775219e-07
0.675000	481950.925476	3.802553e-07
0.680000	487734.035859	3.643105e-07
0.685000	493535.481570	3.637577e-07
0.690000	499355.065598	3.663998e-07
0.695000	505192.527128	3.567317e-07
0.700000	511047.690453	3.548544e-07
0.705000	516920.349100	3.463782e-07
0.710000	522810.333147	3.462387e-07
0.715000	528717.441251	3.359450e-07
0.720000	534641.435394	3.407452e-07
0.725000	540582.178522	3.347774e-07
0.730000	546539.382799	3.250425e-07
0.735000	552512.943578	3.227559e-07
0.740000	558502.651666	3.171530e-07
0.745000	564508.322889	3.327174e-07
0.750000	570529.747818	3.140424e-07
0.755000	576566.772014	3.149434e-07
0.760000	582619.241653	3.097771e-07
0.765000	588686.919733	3.060217e-07
0.770000	594769.702139	3.006841e-07
0.775000	600867.384046	2.933319e-07
0.780000	606979.792540	2.881269e-07
0.785000	613106.763038	2.885055e-07
0.790000	619248.148281	2.819561e-07
0.795000	625403.745895	2.813588e-07
0.800000	631573.444732	2.840492e-07
0.805000	637757.053415	2.766988e-07
0.810000	643954.409149	2.813653e-07
0.815000	650165.351186	2.714306e-07
0.820000	656389.728025	2.715832e-07
0.825000	662627.400440	2.679897e-07
0.830000	668878.196072	2.641041e-07
0.835000	675141.990841	2.624791e-07
0.840000	681418.626960	2.655498e-07
0.845000	687707.960607	2.601857e-07
0.850000	694009.912467	2.591964e-07
0.855000	700324.293884	2.580222e-07
0.860000	706651.008854	2.476338e-07
0.865000	712989.911398	2.477237e-07
0.870000	719340.840773	2.370322e-07
0.875000	725703.692519	2.485288e-07
0.880000	732078.403680	2.308108e-07
0.885000	738464.793145	2.379105e-07
0.890000	744862.700966	2.450718e-07
0.895000	751272.046530	2.316660e-07
0.900000	757692.701668	2.233193e-07
0.905000	764124.541307	2.238783e-07
0.910000	770567.465293	2.177838e-07
0.915000	777021.294074	2.244722e-07
0.920000	783485.953884	2.201681e-07
0.925000	789961.333972	2.148966e-07
0.930000	796447.254277	2.192464e-07
0.935000	802943.661744	2.105611e-07
0.940000	809450.435025	2.126793e-07
0.945000	815967.421622	2.086556e-07
0.950000	822494.547786	2.038472e-07
0.955000	829031.712349	2.011895e-07
0.960000	835578.792834	2.039355e-07
0.965000	842135.711546	1.957466e-07
0.970000	848702.348228	1.960798e-07
0.975000	855278.603638	2.009192e-07
0.980000	861864.358217	1.935235e-07
0.985000	868459.554970	1.910492e-07
0.990000	875064.115368	1.938194e-07
0.995000	881677.919068	1.805360e-07
1.000000	888300.830854	1.845962e-07
1.005000	894932.776225	1.820161e-07
1.010000	901573.637530	1.744662e-07
1.015000	908223.352780	1.754281e-07
1.020000	914881.763757	1.767930e-07
1.025000	921548.827106	1.783385e-07
1.030000	928224.385502	1.806153e-07
1.035000	934908.414214	1.721723e-07
1.040000	941600.781641	1.672247e-07
1.045000	948301.451302	1.714976e-07
1.050000	955010.317823	1.677063e-07
1.055000	961727.287586	1.621944e-07
1.060000	968452.296338	1.672074e-07
1.065000	975185.264800	1.525351e-07
1.070000	981926.068878	1.592838e-07
1.075000	988674.645073	1.528008e-07
1.080000	995430.925908	1.497617e-07
1.085000	1002194.829886	1.576545e-07
1.090000	1008966.261303	1.531831e-07
1.095000	1015745.132228	1.452349e-07
1.100000	1022531.420322	1.470886e-07
1.105000	1029325.020538	1.470842e-07
1.110000	1036125.890608	1.456875e-07
1.115000	1042933.944982	1.439924e-07
1.120000	1049749.083354	1.401124e-07
1.125000	1056571.322039	1.465714e-07
1.130000	1063400.509318	1.431474e-07
1.135000	1070236.614045	1.410683e-07
1.140000	1077079.572196	1.342098e-07
1.145000	1083929.356133	1.330210e-07
1.150000	1090785.788864	1.324551e-07
1.155000	1097648.858081	1.377440e-07
1.160000	1104518.546009	1.309347e-07
1.165000	1111394.714440	1.401152e-07
1.170000	1118277.336546	1.312137e-07
1.175000	1125166.326855	1.229243e-07
1.180000	1132061.640126	1.302719e-07
1.185000	1138963.228745	1.255609e-07
1.190000	1145870.973928	1.251462e-07
1.195000	1152784.860816	1.171702e-07
1.200000	1159704.818745	1.300275e-07
1.205000	1166630.796920	1.141757e-07
1.210000	1173562.707147	1.220711e-07
1.215000	1180500.490730	1.119605e-07
1.220000	1187444.082046	1.114399e-07
1.225000	1194393.399700	1.131743e-07
1.230000	1201348.373638	1.164553e-07
1.235000	1208308.935451	1.098421e-07
1.240000	1215275.014571	1.016366e-07
1.245000	1222246.581142	1.095013e-07
1.250000	1229223.499766	1.108677e-07
1.255000	1236205.734019	1.096368e-07
1.260000	1243193.200220	1.019128e-07
1.265000	1250185.858030	9.809677e-08
1.270000	1257183.616621	1.169113e-07
1.275000	1264186.422831	9.824938e-08
1.280000	1271194.163078	1.068758e-07
1.285000	1278206.797253	9.450931e-08
1.290000	1285224.260106	1.013535e-07
1.295000	1292246.458961	1.074897e-07
1.300000	1299273.345098	8.839239e-08
1.305000	1306304.803452	9.464007e-08
1.310000	1313340.766260	8.843331e-08
1.315000	1320381.209722	8.494372e-08
1.320000	1327426.033817	9.200438e-08
1.325000	1334475.122205	8.837158e-08
1.330000	1341528.470951	8.608302e-08
1.335000	1348585.940326	8.664751e-08
1.340000	1355647.520534	8.456370e-08
1.345000	1362713.068548	7.812188e-08
1.350000	1369782.553371	8.961581e-08
1.355000	1376855.884148	7.539504e-08
1.360000	1383933.012674	8.027245e-08
1.365000	1391013.800613	7.401637e-08
1.370000	1398098.277293	7.486908e-08
1.375000	1405186.279974	7.048375e-08
1.380000	1412277.775462	7.074282e-08
1.385000	1419372.703808	7.021360e-08
1.390000	1426470.977530	7.735984e-08
1.395000	1433572.542183	6.657868e-08
1.400000	1440677.323260	6.798015e-08
1.405000	1447785.261227	6.735714e-08
1.410000	1454896.282893	6.392102e-08
1.415000	1462010.356747	6.667148e-08
1.420000	1469127.382797	5.618049e-08
1.425000	1476247.324173	6.334648e-08
1.430000	1483370.145819	5.939669e-08
1.435000	1490495.751091	5.669363e-08
1.440000	1497624.139311	5.856687e-08
1.445000	1504755.230542	5.633155e-08
1.450000	1511888.945841	5.404956e-08
1.455000	1519025.253483	4.881325e-08
1.460000	1526164.064020	5.416043e-08
1.465000	1533305.371858	5.708949e-08
1.470000	1540449.082031	5.497362e-08
1.475000	1547595.147116	4.707262e-08
1.480000	1554743.520429	4.954674e-08
1.485000	1561894.153824	5.051424e-08
1.490000	1569046.982417	4.875359e-08
1.495000	1576201.972479	3.732335e-08
1.500000	1583359.042376	4.331781e-08
1.505000	1590518.168945	4.740023e-08
1.510000	1597679.277333	3.859282e-08
1.515000	1604842.289065	3.795964e-08
1.520000	1612007.201630	4.246327e-08
1.525000	1619173.988683	4.581606e-08
1.530000	1626342.574534	3.764257e-08
1.535000	1633512.885600	3.218380e-08
1.540000	1640684.917128	3.864624e-08
1.545000	1647858.625944	3.624173e-08
1.550000	1655033.998043	3.140089e-08
1.555000	1662210.989259	3.180504e-08
1.560000	1669389.517374	3.798618e-08
1.565000	1676569.589574	2.746326e-08
1.570000	1683751.206375	3.629271e-08
1.575000	1690934.323220	2.650428e-08
1.580000	1698118.899249	2.771639e-08
1.585000	1705304.897423	2.804599e-08
1.590000	1712492.305829	3.205141e-08
1.595000	1719681.112223	2.065495e-08
1.600000	1726871.249527	2.899416e-08
1.605000	1734062.728961	2.783634e-08
1.610000	1741255.513295	3.075968e-08
1.615000	1748449.614067	3.626993e-08
1.620000	1755644.941539	2.347310e-08
1.625000	1762841.566822	3.427134e-08
1.630000	1770039.389426	1.498079e-08
1.635000	1777238.418319	3.087324e-08
1.640000	1784438.629767	2.691578e-08
1.645000	1791640.004849	3.255692e-08
1.650000	1798842.524301	1.753044e-08
1.655000	1806046.109443	2.182282e-08
1.660000	1813250.767628	3.027287e-08
1.665000	1820456.439511	1.324381e-08
1.670000	1827663.150601	1.911130e-08
1.675000	1834870.827065	2.035477e-08
1.680000	1842079.475701	1.821551e-08
1.685000	1849289.054217	2.247211e-08
1.690000	1856499.507996	1.926313e-08
1.695000	1863710.805093	1.260587e-08
1.700000	1870922.927522	1.670620e-08
1.705000	1878135.836040	1.279057e-08
1.710000	1885349.533178	1.460609e-08
1.715000	1892563.952835	1.188954e-08
1.720000	1899779.097209	1.240343e-08
1.725000	1906994.930379	7.970533e-09
1.730000	1914211.434301	9.929034e-09
1.735000	1921428.577023	2.963578e-09
1.740000	1928646.340255	1.437623e-08
1.745000	1935864.707539	1.944891e-09
1.750000	1943083.599102	1.339120e-08
1.755000	1950303.024147	4.031480e-09
1.760000	1957522.942276	1.616672e-08
1.765000	1964743.339587	6.769288e-09
1.770000	1971964.240539	9.805102e-09
1.775000	1979185.543279	1.117716e-08
1.780000	1986407.240869	5.830055e-09
1.785000	1993629.313539	8.161731e-09
1.790000	2000851.786240	-1.596010e-09
1.795000	2008074.632374	7.887684e-09
1.800000	2015297.766653	6.348928e-09
1.805000	2022521.191398	3.559297e-09
1.810000	2029744.895734	-1.474566e-09
1.815000	2036968.846028	7.075298e-09
1.820000	2044193.033430	1.110901e-08
1.825000	2051417.400045	9.514252e-09
1.830000	2058641.911707	1.888645e-09
1.835000	2065866.582801	-4.936811e-10
1.840000	2073091.376294	-3.240422e-10
1.845000	2080316.315958	-6.793385e-10
1.850000	2087541.345011	1.044434e-08
1.855000	2094766.481727	5.526203e-09
1.860000	2101991.678198	1.981822e-09
1.865000	2109216.913256	1.331409e-08
1.870000	2116442.185401	4.267655e-09
1.875000	2123667.465002	-2.117327e-10
1.880000	2130892.722875	1.112935e-08
1.885000	2138117.965885	3.619081e-09
1.890000	2145343.185284	6.158562e-10
1.895000	2152568.345749	5.978919e-09
1.900000	2159793.403535	3.079116e-09
1.905000	2167018.364495	1.036855e-09
1.910000	2174243.227933	6.231775e-09
1.915000	2181467.955217	1.766047e-09
1.920000	2188692.545180	-2.141506e-09
1.925000	2195916.993660	5.044451e-09
1.930000	2203141.276681	5.062558e-09
1.935000	2210365.377235	4.580802e-09
1.940000	2217589.270623	6.534318e-09
1.945000	2224812.962307	2.900775e-09
1.950000	2232036.416525	6.752103e-09
1.955000	2239259.636805	-4.825996e-09
1.960000	2246482.616051	-1.201582e-09
1.965000	2253705.322970	-8.437786e-10
1.970000	2260927.754637	-6.371651e-09
1.975000	2268149.868713	-1.319222e-08
1.980000	2275371.695024	-4.264108e-09
1.985000	2282593.247568	4.458759e-09
1.990000	2289814.504607	-4.051293e-09
1.995000	2297035.439734	3.537354e-09
2.000000	2304256.063217	7.879300e-09
2.005000	2311476.386470	7.601208e-09
2.010000	2318696.408542	6.956290e-10
2.015000	2325916.063262	-7.732572e-09
2.020000	2333135.381489	1.325117e-09
2.025000	2340354.368565	-2.813225e-09
2.030000	2347573.063029	-6.673372e-09
2.035000	2354791.477070	-9.352951e-09
2.040000	2362009.577143	-3.572702e-09
2.045000	2369227.385802	-9.097453e-09
2.050000	2376444.915488	-5.106263e-09
2.055000	2383662.059388	2.250561e-09
2.060000	2390878.922313	1.959719e-09
2.065000	2398095.506558	-4.441319e-09
2.070000	2405311.729069	-1.142744e-08
2.075000	2412527.634634	-8.889552e-09
2.080000	2419743.287390	1.616985e-09
2.085000	2426958.667316	-6.170116e-09
2.090000	2434173.776093	3.312915e-09
2.095000	2441388.666332	-3.562409e-09
2.100000	2448603.223735	-2.013521e-09
2.105000	2455817.573898	-1.403454e-09
2.110000	2463031.651947	-5.760706e-10
2.115000	2470245.507246	-1.024735e-08
2.120000	2477459.115067	-8.636829e-09
2.125000	2484672.467121	-1.065353e-08
2.130000	2491885.601266	-4.457854e-09
2.135000	2499098.459881	-3.048047e-09
2.140000	2506311.127482	-4.144241e-09
2.145000	2513523.530440	-2.980565e-09
2.150000	2520735.631020	-8.713249e-11
2.155000	2527947.519079	2.884615e-09
2.160000	2535159.163272	-6.506534e-09
2.165000	2542370.542124	-5.709274e-09
2.170000	2549581.643156	-3.085553e-09
2.175000	2556792.458823	-3.395378e-09
2.180000	2564002.972282	-2.389138e-09
2.185000	2571213.197290	-1.223215e-08
2.190000	2578423.082775	-4.931478e-09
2.195000	2585632.705891	-7.966823e-09
2.200000	2592841.976788	-1.543073e-08
2.205000	2600050.902532	-9.864329e-09
2.210000	2607259.570283	-8.980858e-09
2.215000	2614467.967013	-6.529347e-09
2.220000	2621676.026363	1.632516e-09
2.225000	2628883.850271	-2.283525e-09
2.230000	2636091.365641	-9.719823e-09
2.235000	2643298.635847	-1.039536e-08
2.240000	2650505.633566	-7.636570e-09
2.245000	2657712.330648	-7.651323e-09
2.250000	2664918.803463	-1.601567e-09
2.255000	2672125.078200	-5.868060e-09
2.260000	2679331.080439	3.669054e-09
2.265000	2686536.846334	-1.668588e-09
2.270000	2693742.416703	-2.551684e-10
2.275000	2700947.708600	-7.704086e-09
2.280000	2708152.736868	-4.533632e-09
2.285000	2715357.559372	3.823894e-09
2.290000	2722562.088270	-9.425618e-09
2.295000	2729766.390302	-6.530297e-10
2.300000	2736970.423926	-8.528626e-09
2.305000	2744174.156367	-9.145244e-09
2.310000	2751377.674595	-5.083088e-09
2.315000	2758580.888788	-1.322082e-08
2.320000	2765783.836521	-5.213316e-09
2.325000	2772986.443927	-6.002093e-10
2.330000	2780188.818942	1.522956e-09
2.335000	2787390.931104	1.568691e-09
2.340000	2794592.734969	9.210024e-10
2.345000	2801794.289593	-4.553355e-09
2.350000	2808995.538096	3.725747e-10
2.355000	2816196.508564	-3.342969e-09
2.360000	2823397.150540	-1.325203e-09
2.365000	2830597.463285	-8.949539e-09
2.370000	2837797.411001	-3.747685e-09
2.375000	2844997.080640	-5.433263e-09
2.380000	2852196.398346	-8.151427e-09
2.385000	2859395.355897	-8.527579e-09
2.390000	2866593.931936	-3.607042e-09
2.395000	2873792.066187	-6.137137e-09
2.400000	2880989.776851	-1.192857e-08
2.405000	2888187.032364	-7.489070e-09
2.410000	2895383.804501	-1.644459e-08
2.415000	2902580.135237	-8.121903e-09
2.420000	2909775.911540	-5.995820e-09
2.425000	2916971.134923	-9.230868e-09
2.430000	2924165.828374	-1.045114e-08
2.435000	2931359.919703	-2.343671e-08
2.440000	2938553.449989	-8.881888e-09
2.445000	2945746.407461	-1.734386e-09
2.450000	2952938.722807	-1.851322e-09
2.455000	2960130.444324	-1.595250e-08
2.460000	2967321.548253	-5.912523e-09
2.465000	2974512.005906	-8.091779e-09
2.470000	2981701.807858	-1.358895e-08
2.475000	2988890.893676	-1.653441e-08
2.480000	2996079.287500	-1.514067e-08
2.485000	3003266.952178	-9.104783e-09
2.490000	3010453.910686	-8.518195e-09
2.495000	3017640.148910	-1.956326e-08
2.500000	3024825.665008	-2.933689e-09
2.505000	3032010.357181	-1.893743e-08
2.510000	3039194.254167	-8.862774e-09
2.515000	3046377.388647	-1.672025e-08
2.520000	3053559.747312	-1.460112e-08
2.525000	3060741.331570	-7.943441e-09
2.530000	3067922.082088	-1.227627e-08
2.535000	3075102.008229	-1.485568e-08
2.540000	3082281.142192	-1.565192e-08
2.545000	3089459.396378	-9.500496e-09
2.550000	3096636.773148	-1.795597e-08
2.555000	3103813.239747	-1.894725e-08
2.560000	3110988.865909	-1.392031e-08
2.565000	3118163.571254	-2.312970e-08
2.570000	3125337.358220	-1.970520e-08
2.575000	3132510.193575	-1.024714e-08
2.580000	3139682.058621	-1.510523e-08
2.585000	3146852.971627	-2.041034e-08
2.590000	3154022.952801	-1.368854e-08
2.595000	3161191.938507	-1.470974e-08
2.600000	3168359.978565	-1.767300e-08
2.605000	3175527.099167	-2.050730e-08
2.610000	3182693.228368	-1.630001e-08
2.615000	3189858.383385	-1.790238e-08
2.620000	3197022.554494	-1.463957e-08
2.625000	3204185.786461	-1.848696e-08
2.630000	3211348.060148	-2.222002e-08
2.635000	3218509.365065	-1.137378e-08
2.640000	3225669.677197	-1.636838e-08
2.645000	3232829.077414	-1.302419e-08
2.650000	3239987.518793	-2.084740e-08
2.655000	3247144.959560	-1.448372e-08
2.660000	3254301.445230	-1.622127e-08
2.665000	3261456.973405	-1.766979e-08
2.670000	3268611.595936	-1.141904e-08
2.675000	3275765.203634	-1.647555e-08
2.680000	3282917.821230	-7.655822e-09
2.685000	3290069.582619	-1.937909e-08
2.690000	3297220.435712	-9.241981e-09
2.695000	3304370.357028	-1.918223e-08
2.700000	3311519.326290	-1.676749e-08
2.705000	3318667.369919	-1.653533e-08
2.710000	3325814.536039	-1.724466e-08
2.715000	3332960.821244	-2.020200e-08
2.720000	3340106.203932	-1.473981e-08
2.725000	3347250.666801	-1.717446e-08
2.730000	3354394.312568	-2.627154e-08
2.735000	3361537.113124	-1.625016e-08
2.740000	3368679.097882	-2.109091e-08
2.745000	3375820.209728	-1.580359e-08
2.750000	3382960.499666	-1.649489e-08
2.755000	3390100.065934	-1.793645e-08
2.760000	3397238.878998	-1.021544e-08
2.765000	3404376.931791	-1.108349e-08
2.770000	3411514.222830	-1.303323e-08
2.775000	3418650.783301	-8.622524e-09
2.780000	3425786.672867	-1.335953e-08
2.785000	3432921.881493	-1.431974e-08
2.790000	3440056.351721	-2.048013e-08
2.795000	3447190.123693	-1.581846e-08
2.800000	3454323.264812	-6.626444e-09
2.805000	3461455.767095	-1.150116e-08
2.810000	3468587.646876	-1.903993e-08
2.815000	3475718.931527	-6.339531e-09
2.820000	3482849.602295	-1.334522e-08
2.825000	3489979.671536	-1.172857e-08
2.830000	3497109.188391	-2.105025e-08
2.835000	3504238.168183	-1.833328e-08
2.840000	3511366.541173	-4.661859e-09
2.845000	3518494.398601	-1.352460e-09
2.850000	3525621.720443	-4.280516e-09
2.855000	3532748.548969	-9.822465e-09
2.860000	3539874.862096	-1.295436e-08
2.865000	3547000.659704	-9.055207e-10
2.870000	3554125.972488	-1.254069e-08
2.875000	3561250.786376	-8.222783e-09
2.880000	3568375.069175	-7.168989e-09
2.885000	3575498.882255	-9.196910e-09
2.890000	3582622.260191	-1.871369e-09
2.895000	3589745.134411	-1.552832e-08
2.900000	3596867.579529	-1.177442e-08
2.905000	3603989.537299	-4.887649e-09
2.910000	3611110.999869	-1.289089e-08
2.915000	3618231.931717	-9.013119e-09
2.920000	3625352.364228	-1.507075e-08
2.925000	3632472.324774	-9.688942e-09
2.930000	3639591.724189	-1.974853e-08
2.935000	3646710.607389	-6.251685e-09
2.940000	3653828.942438	-6.718221e-09
2.945000	3660946.755696	-7.942952e-09
2.950000	3668063.996812	-1.407710e-08
2.955000	3675180.653928	-8.349340e-09
2.960000	3682296.712354	-2.124242e-08
2.965000	3689412.194082	-1.292094e-08
2.970000	3696527.073874	-8.428151e-09
2.975000	3703641.310311	-1.540811e-08
2.980000	3710754.931630	-1.788850e-08
2.985000	3717867.957172	-1.624301e-08
2.990000	3724980.297476	-1.855746e-08
2.995000	3732092.089908	-1.276872e-08
3.000000	3739203.195496	-1.405019e-08
3.005000	3746313.671993	-2.638642e-09
3.010000	3753423.507547	-1.167370e-08
3.015000	3760532.748018	-1.648469e-08
3.020000	3767641.296717	-1.157819e-08
3.025000	3774749.183714	-1.032805e-08
3.030000	3781856.447493	-1.438981e-08
3.035000	3788963.026582	-1.997337e-08
3.040000	3796068.922749	-8.021629e-09
3.045000	3803174.106405	-1.249294e-08
3.050000	3810278.571032	-1.376286e-08
3.055000	3817382.403874	-4.059909e-09
3.060000	3824485.507043	-1.152182e-08
3.065000	3831587.852181	-2.633060e-08
3.070000	3838689.571353	-1.182574e-08
3.075000	3845790.496690	-4.491310e-09
3.080000	3852890.739072	-1.712665e-08
3.085000	3859990.226153	-1.898294e-08
3.090000	3867088.991237	-2.308728e-08
3.095000	3874186.952464	-1.404063e-08
3.100000	3881284.108268	-6.605266e-09
3.105000	3888380.538825	-9.456539e-09
3.110000	3895476.223426	-1.327649e-08
3.115000	3902571.091405	-1.282560e-08
3.120000	3909665.175318	-1.330510e-08
3.125000	3916758.473166	-1.461322e-08
3.130000	3923850.946766	-1.611351e-08
3.135000	3930942.602535	-1.872120e-08
3.140000	3938033.437380	-9.565315e-09
3.145000	3945123.516907	-1.862110e-08
3.150000	3952212.816502	-1.161029e-08
3.155000	3959301.280690	-1.766383e-08
3.160000	3966388.932114	-1.752163e-08
3.165000	3973475.814898	-1.876653e-08
3.170000	3980561.883462	-1.337143e-08
3.175000	3987647.216521	-1.594979e-08
3.180000	3994731.838195	-1.486224e-08
3.185000	4001815.635426	-1.279305e-08
3.190000	4008898.613173	-1.296720e-08
3.195000	4015980.897955	-1.294494e-08
3.200000	4023062.349575	-2.179822e-08
3.205000	4030143.026403	-1.810744e-08
3.210000	4037222.910553	-2.320633e-08
3.215000	4044302.040474	-1.446919e-08
3.220000	4051380.377243	-2.051747e-08
3.225000	4058457.906720	-1.287440e-08
3.230000	4065534.624902	-1.048673e-08
3.235000	4072610.420175	-1.036767e-08
3.240000	4079685.401205	-7.729544e-09
3.245000	4086759.467089	-1.047716e-08
3.250000	4093832.735775	-1.504517e-08
3.255000	4100905.134607	-1.112032e-08
3.260000	4107976.670834	-1.180985e-08
3.265000	4115047.426723	-7.159902e-09
3.270000	4122117.294104	-1.362432e-08
3.275000	4129186.413275	-1.128825e-08
3.280000	4136254.700353	-8.607655e-09
3.285000	4143322.243645	-1.423703e-08
3.290000	4150389.027914	-9.893874e-09
3.295000	4157455.098626	-1.387830e-08
3.300000	4164520.433274	-1.495450e-08
3.305000	4171585.088623	-1.429706e-08
3.310000	4178649.044645	-1.304204e-08
3.315000	4185712.392651	-6.097427e-09
3.320000	4192775.083729	-8.809724e-09
3.325000	4199837.112085	-8.041874e-09
3.330000	4206898.559593	-1.082059e-08
3.335000	4213959.426700	-1.684119e-08
3.340000	4221019.637918	-4.648012e-09
3.345000	4228079.282845	-2.297281e-09
3.350000	4235138.340622	-6.658295e-09
3.355000	4242196.779582	-2.212553e-08
3.360000	4249254.639412	-5.840290e-09
3.365000	4256311.973441	-1.185808e-08
3.370000	4263368.765848	-1.421400e-08
3.375000	4270424.962131	-2.249658e-09
3.380000	4277480.660712	-6.896258e-09
3.385000	4284535.852764	-5.744771e-09
3.390000	4291590.467524	4.393890e-10
3.395000	4298644.646001	-4.531388e-09
3.400000	4305698.260221	-2.914062e-09
3.405000	4312751.453830	-7.438219e-09
3.410000	4319804.128154	-4.085818e-09
3.415000	4326856.378212	-4.634609e-09
3.420000	4333908.176717	-9.729096e-09
3.425000	4340959.437776	-8.323499e-09
3.430000	4348010.287005	-3.156914e-09
3.435000	4355060.635010	-1.308582e-09
3.440000	4362110.458884	-5.677740e-09
3.445000	4369159.855258	3.132178e-09
3.450000	4376208.786320	-3.469732e-09
3.455000	4383257.190394	-9.233394e-09
3.460000	4390305.090749	-2.430407e-09
3.465000	4397352.575203	-1.184974e-08
3.470000	4404399.539021	-1.083412e-09
3.475000	4411446.023577	-3.529165e-09
3.480000	4418492.026175	-5.266293e-09
3.485000	4425537.575753	-5.266345e-09
3.490000	4432582.719048	-8.829971e-09
3.495000	4439627.375762	-5.422049e-09
3.500000	4446671.635080	-4.927624e-09
3.505000	4453715.451537	1.928774e-09
3.510000	4460758.795491	-2.580598e-09
3.515000	4467801.749922	-3.158056e-09
3.520000	4474844.243932	-1.019957e-08
3.525000	4481886.172725	1.270810e-09
3.530000	4488927.727215	8.556489e-10
3.535000	4495968.840762	-1.824576e-09
3.540000	4503009.494411	-2.873274e-09
3.545000	4510049.650855	1.987609e-09
3.550000	4517089.352472	-3.328369e-09
3.555000	4524128.622403	-3.528347e-09
3.560000	4531167.407181	1.201628e-09
3.565000	4538205.699132	-3.219471e-09
3.570000	4545243.508194	-1.049531e-10
3.575000	4552280.783783	-1.150010e-10
3.580000	4559317.573442	-1.578501e-09
3.585000	4566353.847818	-2.142241e-10
3.590000	4573389.599213	6.371592e-09
3.595000	4580424.781660	-1.002556e-08
3.600000	4587459.390043	-4.864096e-09
3.605000	4594493.432204	7.778341e-09
3.610000	4601526.838617	2.985011e-10
3.615000	4608559.603448	3.442459e-09
3.620000	4615591.680454	-9.788389e-09
3.625000	4622623.182915	-5.012835e-09
3.630000	4629654.046823	-6.891073e-09
3.635000	4636684.190588	-8.435921e-09
3.640000	4643713.606841	-5.283219e-10
3.645000	4650742.335828	-1.094355e-08
3.650000	4657770.358426	-9.790673e-09
3.655000	4664797.645070	-7.623938e-09
3.660000	4671824.191213	-8.233703e-09
3.665000	4678849.942818	-1.156034e-08
3.670000	4685874.905212	-1.118569e-08
3.675000	4692899.056306	-1.445350e-08
3.680000	4699922.434148	-1.025028e-08
3.685000	4706944.968162	-7.885045e-09
3.690000	4713966.650281	-1.844693e-08
3.695000	4720987.491082	-1.722877e-08
3.700000	4728007.466062	-1.258594e-08
3.705000	4735026.602945	-1.357305e-08
3.710000	4742044.866131	-1.640739e-08
3.715000	4749062.212639	-1.419576e-10
3.720000	4756078.698552	-1.895691e-08
3.725000	4763094.287846	-2.563222e-08
3.730000	4770108.936987	-2.141048e-08
3.735000	4777122.605781	-1.691445e-08
3.740000	4784135.293936	-1.762721e-08
3.745000	4791147.043942	-1.415119e-08
3.750000	4798157.817458	-1.214508e-08
3.755000	4805167.584909	-2.138961e-08
3.760000	4812176.348460	-1.094179e-08
3.765000	4819184.131353	-1.083063e-08
3.770000	4826190.990037	-9.037013e-09
3.775000	4833196.829213	-1.607250e-08
3.780000	4840201.726382	-1.604563e-08
3.785000	4847205.603123	-1.913800e-08
3.790000	4854208.475253	-1.215750e-08
3.795000	4861210.373355	-1.266547e-08
3.800000	4868211.365873	-2.122078e-08
3.805000	4875211.308149	-1.773263e-08
3.810000	4882210.245997	-2.219628e-08
3.815000	4889208.233906	-1.689840e-08
3.820000	4896205.201135	-1.547697e-08
3.825000	4903201.113723	-2.151990e-08
3.830000	4910196.013215	-1.872085e-08
3.835000	4917189.916111	-1.947971e-08
3.840000	4924182.822432	-2.586697e-08
3.845000	4931174.681816	-1.373827e-08
3.850000	4938165.519000	-2.688826e-08
3.855000	4945155.355987	-2.241277e-08
3.860000	4952144.220114	-2.037555e-08
3.865000	4959132.010194	-1.729431e-08
3.870000	4966118.719754	-2.613261e-08
3.875000	4973104.491535	-1.505198e-08
3.880000	4980089.229313	-2.709581e-08
3.885000	4987072.849470	-2.102707e-08
3.890000	4994055.436199	-2.020261e-08
3.895000	5001036.998824	-1.676285e-08
3.900000	5008017.515735	-2.309607e-08
3.905000	5014997.024559	-2.797120e-08
3.910000	5021975.490296	-2.274801e-08
3.915000	5028952.944718	-1.915664e-08
3.920000	5035929.318332	-2.010901e-08
3.925000	5042904.612382	-1.634185e-08
3.930000	5049878.868243	-1.668231e-08
3.935000	5056852.076489	-1.755413e-08
3.940000	5063824.282935	-1.922699e-08
3.945000	5070795.467109	-2.114068e-08
3.950000	5077765.690436	-2.363146e-08
3.955000	5084734.834348	-2.747645e-08
3.960000	5091702.961201	-2.738300e-08
3.965000	5098669.994175	-1.633881e-08
3.970000	5105635.951704	-1.243016e-08
3.975000	5112600.934547	-2.983212e-08
3.980000	5119564.847206	-1.800113e-08
3.985000	5126527.674690	-2.829265e-08
3.990000	5133489.500296	-1.790986e-08
3.995000	5140450.200669	-2.311265e-08
4.000000	5147409.845643	-1.887084e-08
4.005000	5154368.447898	-1.686738e-08
4.010000	5161325.990301	-2.525777e-08
4.015000	5168282.508812	-1.394969e-08
4.020000	5175237.936579	-2.667538e-08
4.025000	5182192.268848	-1.362017e-08
4.030000	5189145.438019	-1.900849e-08
4.035000	5196097.527382	-1.552587e-08