0.000000	0.000000	6.081008e-06
0.005000	45.501582	1.332155e-06
0.010000	162.540125	1.495579e-06
0.015000	352.741962	1.528795e-06
0.020000	618.571036	1.489935e-06
0.025000	958.613472	1.463534e-06
0.030000	1371.882899	1.440947e-06
0.035000	1857.527611	1.437157e-06
0.040000	2414.750921	1.418267e-06
0.045000	3042.844650	1.407014e-06
0.050000	3740.996565	1.387060e-06
0.055000	4508.480116	1.374353e-06
0.060000	5344.534423	1.353954e-06
0.065000	6248.406007	1.342498e-06
0.070000	7219.338944	1.336770e-06
0.075000	8256.593806	1.315546e-06
0.080000	9359.439614	1.292524e-06
0.085000	10527.175342	1.285976e-06
0.090000	11759.054999	1.276878e-06
0.095000	13054.369549	1.251909e-06
0.100000	14412.431234	1.238904e-06
0.105000	15832.564065	1.222907e-06
0.110000	17314.026146	1.209998e-06
0.115000	18856.202807	1.203825e-06
0.120000	20458.388008	1.194573e-06
0.125000	22119.950785	1.176751e-06
0.130000	23840.242581	1.162366e-06
0.135000	25618.531645	1.152150e-06
0.140000	27454.222619	1.137914e-06
0.145000	29346.711721	1.132722e-06
0.150000	31295.350497	1.108712e-06
0.155000	33299.470858	1.101691e-06
0.160000	35358.547040	1.085810e-06
0.165000	37471.922714	1.079196e-06
0.170000	39639.019901	1.062979e-06
0.175000	41859.235184	1.050580e-06
0.180000	44131.965786	1.037049e-06
0.185000	46456.656052	1.032648e-06
0.190000	48832.720976	1.023659e-06
0.195000	51259.604977	1.012359e-06
0.200000	53736.738212	9.957671e-07
0.205000	56263.570713	9.879708e-07
0.210000	58839.597918	9.734271e-07
0.215000	61464.215993	9.687374e-07
0.220000	64136.893763	9.565812e-07
0.225000	66857.121135	9.398963e-07
0.230000	69624.395783	9.322579e-07
0.235000	72438.164607	9.306393e-07
0.240000	75297.912331	9.075103e-07
0.245000	78203.154659	9.046728e-07
0.250000	81153.363908	8.914789e-07
0.255000	84148.011750	8.818243e-07
0.260000	87186.627633	8.708895e-07
0.265000	90268.735960	8.685259e-07
0.270000	93393.857408	8.569229e-07
0.275000	96561.511188	8.457823e-07
0.280000	99771.255124	8.343384e-07
0.285000	103022.633725	8.391460e-07
0.290000	106315.155058	8.241382e-07
0.295000	109648.413305	8.151007e-07
0.300000	113021.953207	8.004702e-07
0.305000	116435.281581	7.987391e-07
0.310000	119888.047908	7.839792e-07
0.315000	123379.769532	7.826149e-07
0.320000	126910.001949	7.583619e-07
0.325000	130478.342835	7.599458e-07
0.330000	134084.418422	7.552327e-07
0.335000	137727.794811	7.329030e-07
0.340000	141408.025868	7.329258e-07
0.345000	145124.729541	7.335973e-07
0.350000	148877.518460	7.160123e-07
0.355000	152666.014182	7.101148e-07
0.360000	156489.809841	7.005280e-07
0.365000	160348.526012	6.946330e-07
0.370000	164241.803393	6.815194e-07
0.375000	168169.238552	6.858798e-07
0.380000	172130.479615	6.703696e-07
0.385000	176125.116399	6.597114e-07
0.390000	180152.825098	6.592246e-07
0.395000	184213.238320	6.486872e-07
0.400000	188306.010780	6.389436e-07
0.405000	192430.783725	6.433071e-07
0.410000	196587.233629	6.298643e-07
0.415000	200774.990201	6.221550e-07
0.420000	204993.672472	6.230619e-07
0.425000	209243.027114	6.118925e-07
0.430000	213522.682605	6.024348e-07
0.435000	217832.295817	5.971000e-07
0.440000	222171.565060	5.900227e-07
0.445000	226540.151696	5.902095e-07
0.450000	230937.759188	5.768749e-07
0.455000	235364.072098	5.849596e-07
0.460000	239818.758188	5.738826e-07
0.465000	244301.547875	5.680531e-07
0.470000	248812.129454	5.491790e-07
0.475000	253350.219001	5.546017e-07
0.480000	257915.493386	5.407189e-07
0.485000	262507.652260	5.403046e-07
0.490000	267126.361853	5.314276e-07
0.495000	271771.401107	5.284684e-07
0.500000	276442.391740	5.244199e-07
0.505000	281139.111772	5.102971e-07
0.510000	285861.308480	5.092607e-07
0.515000	290608.627680	5.049884e-07
0.520000	295380.826567	5.017868e-07
0.525000	300177.652043	5.023447e-07
0.530000	304998.819149	4.880476e-07
0.535000	309844.050808	4.808944e-07
0.540000	314713.093960	4.773611e-07
0.545000	319605.718496	4.663020e-07
0.550000	324521.657764	4.673224e-07
0.555000	329460.610417	4.594442e-07
0.560000	334422.413172	4.670076e-07
0.565000	339406.757254	4.466159e-07
0.570000	344413.398285	4.476161e-07
0.575000	349442.119179	4.366587e-07
0.580000	354492.658919	4.406676e-07
0.585000	359564.817446	4.413622e-07
0.590000	364658.347634	4.325108e-07
0.595000	369773.023907	4.247319e-07
0.600000	374908.593105	4.209026e-07
0.605000	380064.830520	4.135685e-07
0.610000	385241.531113	4.094051e-07
0.615000	390438.496596	4.058869e-07
0.620000	395655.460928	4.069121e-07
0.625000	400892.232998	3.927798e-07
0.630000	406148.610733	3.896215e-07
0.635000	411424.385669	3.965986e-07
0.640000	416719.372035	3.895553e-07
0.645000	422033.327663	3.837159e-07
0.650000	427366.066411	3.775229e-07
0.655000	432717.413475	3.797594e-07
0.660000	438087.108097	3.685267e-07
0.665000	443475.002161	3.688964e-07
0.670000	448880.883528	3.613477e-07
0.675000	454304.594988	3.530658e-07
0.680000	459745.907154	3.466684e-07
0.685000	465204.623966	3.521544e-07
0.690000	470680.582079	3.468503e-07
0.695000	476173.614792	3.322872e-07
0.700000	481683.479981	3.395696e-07
0.705000	487210.033334	3.447326e-07
0.710000	492753.133753	3.234875e-07
0.715000	498312.552303	3.226484e-07
0.720000	503888.095467	3.246854e-07
0.725000	509479.623640	3.119788e-07
0.730000	515086.957128	3.123888e-07
0.735000	520709.958964	3.168596e-07
0.740000	526348.429596	2.964519e-07
0.745000	532002.186077	3.044904e-07
0.750000	537671.095153	2.989925e-07
0.755000	543354.960099	2.964637e-07
0.760000	549053.582288	2.947386e-07
0.765000	554766.862777	2.864357e-07
0.770000	560494.620543	2.785809e-07
0.775000	566236.710563	2.802553e-07
0.780000	571992.961642	2.851308e-07
0.785000	577763.178215	2.786599e-07
0.790000	583547.284155	2.813349e-07
0.795000	589345.119603	2.736325e-07
0.800000	595156.491234	2.694839e-07
0.805000	600981.253615	2.689006e-07
0.810000	606819.314921	2.570421e-07
0.815000	612670.491692	2.663711e-07
0.820000	618534.674040	2.565145e-07
0.825000	624411.677607	2.520040e-07
0.830000	630301.395026	2.454546e-07
0.835000	636203.685096	2.479540e-07
0.840000	642118.422214	2.460365e-07
0.845000	648045.498420	2.431219e-07
0.850000	653984.757627	2.470192e-07
0.855000	659936.081911	2.360880e-07
0.860000	665899.311117	2.397171e-07
0.865000	671874.346694	2.423799e-07
0.870000	677861.062043	2.355607e-07
0.875000	683859.368047	2.254445e-07
0.880000	689869.115727	2.213193e-07
0.885000	695890.174116	2.264791e-07
0.890000	701922.468096	2.237237e-07
0.895000	707965.822197	2.220103e-07
0.900000	714020.168303	2.063352e-07
0.905000	720085.385912	2.151908e-07
0.910000	726161.318151	2.060652e-07
0.915000	732247.910944	2.057855e-07
0.920000	738345.036036	2.067422e-07
0.925000	744452.574487	2.086296e-07
0.930000	750570.425547	1.968670e-07
0.935000	756698.472695	2.029162e-07
0.940000	762836.622979	2.050439e-07
0.945000	768984.764548	1.869763e-07
0.950000	775142.768318	1.958116e-07
0.955000	781310.528982	1.976647e-07
0.960000	787487.934348	1.924485e-07
0.965000	793674.960587	1.919888e-07
0.970000	799871.453480	1.889579e-07
0.975000	806077.266241	1.832009e-07
0.980000	812292.359681	1.862573e-07
0.985000	818516.608034	1.877895e-07
0.990000	824749.891556	1.723465e-07
0.995000	830992.109481	1.760479e-07
1.000000	837243.185792	1.711186e-07
1.005000	843503.008076	1.674321e-07
1.010000	849771.514906	1.711815e-07
1.015000	856048.578029	1.669456e-07
1.020000	862334.111149	1.691390e-07
1.025000	868627.992865	1.656495e-07
1.030000	874930.139963	1.673245e-07
1.035000	881240.477675	1.610353e-07
1.040000	887558.853359	1.595662e-07
1.045000	893885.223894	1.503207e-07
1.050000	900219.473328	1.572708e-07
1.055000	906561.490374	1.528810e-07
1.060000	912911.210948	1.542542e-07
1.065000	919268.525020	1.477869e-07
1.070000	925633.338914	1.483870e-07
1.075000	932005.583993	1.460055e-07
1.080000	938385.197277	1.405386e-07
1.085000	944772.061317	1.423312e-07
1.090000	951166.072664	1.404555e-07
1.095000	957567.195636	1.423520e-07
1.100000	963975.331776	1.485806e-07
1.105000	970390.392374	1.336175e-07
1.110000	976812.290581	1.423328e-07
1.115000	983240.945122	1.353277e-07
1.120000	989676.297747	1.307756e-07
1.125000	996118.233517	1.263794e-07
1.130000	1002566.696396	1.293359e-07
1.135000	1009021.577854	1.304453e-07
1.140000	1015482.802430	1.268526e-07
1.145000	1021950.339493	1.245055e-07
1.150000	1028424.064426	1.214906e-07
1.155000	1034903.896150	1.172137e-07
1.160000	1041389.788760	1.219735e-07
1.165000	1047881.638297	1.222068e-07
1.170000	1054379.431220	1.267732e-07
1.175000	1060883.065922	1.057950e-07
1.180000	1067392.480248	1.047406e-07
1.185000	1073907.628923	1.142280e-07
1.190000	1080428.436951	1.148073e-07
1.195000	1086954.812852	1.082253e-07
1.200000	1093486.683977	1.055841e-07
1.205000	1100024.013846	1.059736e-07
1.210000	1106566.720489	9.830661e-08
1.215000	1113114.743636	1.014854e-07
1.220000	1119668.031942	1.021914e-07
1.225000	1126226.488743	1.031109e-07
1.230000	1132790.063656	9.877545e-08
1.235000	1139358.632872	1.028413e-07
1.240000	1145932.228101	9.655469e-08
1.245000	1152510.721482	9.082135e-08
1.250000	1159094.068359	9.083494e-08
1.255000	1165682.208075	9.970761e-08
1.260000	1172275.074009	9.739921e-08
1.265000	1178872.588823	8.919654e-08
1.270000	1185474.704343	8.137115e-08
1.275000	1192081.341790	7.788734e-08
1.280000	1198692.419562	8.747439e-08
1.285000	1205307.891393	7.960342e-08
1.290000	1211927.699485	7.775093e-08
1.295000	1218551.760551	8.220889e-08
1.300000	1225180.021703	7.176341e-08
1.305000	1231812.437794	8.397595e-08
1.310000	1238448.919147	7.978708e-08
1.315000	1245089.416498	7.024896e-08
1.320000	1251733.843207	7.436442e-08
1.325000	1258382.199290	6.837346e-08
1.330000	1265034.402730	7.343899e-08
1.335000	1271690.416212	7.318613e-08
1.340000	1278350.190369	7.054016e-08
1.345000	1285013.642173	6.008975e-08
1.350000	1291680.753567	7.945489e-08
1.355000	1298351.474047	6.992941e-08
1.360000	1305025.744047	7.062231e-08
1.365000	1311703.485858	6.448038e-08
1.370000	1318384.654476	6.115199e-08
1.375000	1325069.244886	6.757200e-08
1.380000	1331757.152550	6.426929e-08
1.385000	1338448.354592	6.441403e-08
1.390000	1345142.823470	5.533254e-08
1.395000	1351840.440514	6.341537e-08
1.400000	1358541.169191	5.476094e-08
1.405000	1365244.944927	5.523542e-08
1.410000	1371951.731073	5.865253e-08
1.415000	1378661.533669	6.021633e-08
1.420000	1385374.266052	5.865765e-08
1.425000	1392089.858192	5.358859e-08
1.430000	1398808.305971	5.109498e-08
1.435000	1405529.588207	5.818193e-08
1.440000	1412253.596265	5.313661e-08
1.445000	1418980.372382	5.149480e-08
1.450000	1425709.848510	5.188349e-08
1.455000	1432441.990356	4.997433e-08
1.460000	1439176.762160	4.659892e-08
1.465000	1445914.117405	4.759015e-08
1.470000	1452654.025190	4.758683e-08
1.475000	1459396.458984	3.645513e-08
1.480000	1466141.364852	4.342388e-08
1.485000	1472888.761853	3.410216e-08
1.490000	1479638.516055	4.457512e-08
1.495000	1486390.666272	4.668992e-08
1.500000	1493145.171481	3.505700e-08
1.505000	1499901.990303	3.755525e-08
1.510000	1506661.085344	4.021779e-08
1.515000	1513422.446953	4.513483e-08
1.520000	1520186.043037	4.010739e-08
1.525000	1526951.815049	4.125506e-08
1.530000	1533719.739682	3.786713e-08
1.535000	1540489.792889	4.221150e-08
1.540000	1547261.957475	4.916847e-08
1.545000	1554036.223969	2.919926e-08
1.550000	1560812.541256	3.574249e-08
1.555000	1567590.916745	3.320843e-08
1.560000	1574371.297997	3.785246e-08
1.565000	1581153.678120	3.580125e-08
1.570000	1587938.010556	3.627728e-08
1.575000	1594724.269556	4.306059e-08
1.580000	1601512.467594	3.458305e-08
1.585000	1608302.552787	3.972239e-08
1.590000	1615094.486487	3.804598e-08
1.595000	1621888.220066	4.220909e-08
1.600000	1628683.747816	3.013393e-08
1.605000	1635481.044972	4.043955e-08
1.610000	1642280.094606	3.872780e-08
1.615000	1649080.845932	3.587461e-08
1.620000	1655883.321872	3.601983e-08
1.625000	1662687.495319	2.044063e-08
1.630000	1669493.324409	4.163483e-08
1.635000	1676300.850297	2.702854e-08
1.640000	1683110.035633	3.998780e-08
1.645000	1689920.883478	4.123750e-08
1.650000	1696733.359708	2.778065e-08
1.655000	1703547.474390	3.193938e-08
1.660000	1710363.234402	3.324686e-08
1.665000	1717180.572369	3.489057e-08
1.670000	1723999.508866	3.719650e-08
1.675000	1730820.041968	3.483875e-08
1.680000	1737642.090732	3.303731e-08
1.685000	1744465.653967	3.097758e-08
1.690000	1751290.758320	2.758058e-08
1.695000	1758117.404110	2.846411e-08
1.700000	1764945.553863	4.008407e-08
1.705000	1771775.216247	2.519343e-08
1.710000	1778606.409994	2.946855e-08
1.715000	1785439.039798	2.519348e-08
1.720000	1792273.123002	2.886976e-08
1.725000	1799108.681257	3.221744e-08
1.730000	1805945.674469	3.248913e-08
1.735000	1812784.138788	3.525949e-08
1.740000	1819624.012273	2.741219e-08
1.745000	1826465.293264	3.348878e-08
1.750000	1833308.007684	3.875170e-08
1.755000	1840152.102623	3.099831e-08
1.760000	1846997.612374	2.684817e-08
1.765000	1853844.488564	2.849958e-08
1.770000	1860692.730032	3.382658e-08
1.775000	1867542.356112	2.710701e-08
1.780000	1874393.269473	2.338029e-08
1.785000	1881245.528662	3.380726e-08
1.790000	1888099.065529	2.665693e-08
1.795000	1894953.952794	2.550542e-08
1.800000	1901810.104607	2.583816e-08
1.805000	1908667.507037	2.410677e-08
1.810000	1915526.141742	3.343267e-08
1.815000	1922386.030314	2.328283e-08
1.820000	1929247.163504	3.088926e-08
1.825000	1936109.477993	2.934371e-08
1.830000	1942973.017434	2.314750e-08
1.835000	1949837.742661	2.731360e-08
1.840000	1956703.671811	2.776281e-08
1.845000	1963570.697660	2.492364e-08
1.850000	1970438.872395	2.867159e-08
1.855000	1977308.195477	2.458499e-08
1.860000	1984178.616414	2.518380e-08
1.865000	1991050.180343	2.387037e-08
1.870000	1997922.813332	1.662906e-08
1.875000	2004796.527781	1.975907e-08
1.880000	2011671.324278	1.744324e-08
1.885000	2018547.187935	2.746236e-08
1.890000	2025424.076463	2.268679e-08
1.895000	2032302.001003	2.439385e-08
1.900000	2039180.913866	9.616044e-09
1.905000	2046060.820044	1.923183e-08
1.910000	2052941.706476	1.783279e-08
1.915000	2059823.565828	1.891417e-08
1.920000	2066706.369454	1.521652e-08
1.925000	2073590.073770	2.355362e-08
1.930000	2080474.678264	1.652563e-08
1.935000	2087360.203524	1.863133e-08
1.940000	2094246.571628	1.717543e-08
1.945000	2101133.812831	1.519555e-08
1.950000	2108021.973964	1.518802e-08
1.955000	2114910.989764	1.637765e-08
1.960000	2121800.835995	2.055792e-08
1.965000	2128691.561582	1.110049e-08
1.970000	2135583.140118	2.087282e-08
1.975000	2142475.518615	1.711790e-08
1.980000	2149368.715663	1.683815e-08
1.985000	2156262.716912	1.835396e-08
1.990000	2163157.520517	1.216135e-08
1.995000	2170053.123341	1.717364e-08
2.000000	2176949.507468	1.684342e-08
2.005000	2183846.707622	1.050607e-08
2.010000	2190744.705446	1.296841e-08
2.015000	2197643.440301	1.044431e-08
2.020000	2204542.980209	1.682697e-08
2.025000	2211443.279986	1.017035e-08
2.030000	2218344.271891	6.033423e-09
2.035000	2225246.040569	6.998684e-09
2.040000	2232148.583470	9.464865e-09
2.045000	2239051.783599	9.482513e-09
2.050000	2245955.746011	1.341706e-08
2.055000	2252860.436740	1.333316e-08
2.060000	2259765.802123	6.093283e-09
2.065000	2266671.917092	6.529368e-09
2.070000	2273578.726547	1.066239e-08
2.075000	2280486.232614	8.857522e-09
2.080000	2287394.445550	1.778012e-08
2.085000	2294303.383469	1.734097e-08
2.090000	2301212.986664	2.111223e-08
2.095000	2308123.299118	1.245500e-08
2.100000	2315034.298590	1.588112e-08
2.105000	2321946.013098	2.698164e-09
2.110000	2328858.407132	1.514010e-08
2.115000	2335771.456599	7.923243e-09
2.120000	2342685.207930	1.156163e-08
2.125000	2349599.655433	1.288182e-08
2.130000	2356514.722185	1.132650e-08
2.135000	2363430.498937	1.507258e-08
2.140000	2370346.979130	6.842459e-09
2.145000	2377264.113116	2.035849e-08
2.150000	2384181.920401	8.928832e-09
2.155000	2391100.390578	1.242839e-08
2.160000	2398019.576527	1.256509e-08
2.165000	2404939.426832	1.858167e-08
2.170000	2411859.963253	8.756462e-09
2.175000	2418781.220263	2.454332e-08
2.180000	2425703.199548	1.147729e-08
2.185000	2432625.920529	1.014889e-08
2.190000	2439549.354486	1.905201e-08
2.195000	2446473.517839	1.271532e-08
2.200000	2453398.453520	1.276824e-08
2.205000	2460324.120529	1.285631e-08
2.210000	2467250.588170	1.210052e-08
2.215000	2474177.817555	1.846546e-08
2.220000	2481105.821319	5.884784e-09
2.225000	2488034.588407	1.124481e-08
2.230000	2494964.145405	1.744637e-08
2.235000	2501894.502846	1.745431e-08
2.240000	2508825.650237	1.820277e-08
2.245000	2515757.572462	1.424151e-08
2.250000	2522690.336259	6.827928e-09
2.255000	2529623.913384	2.777498e-08
2.260000	2536558.225432	4.446317e-09
2.265000	2543493.392700	2.488711e-09
2.270000	2550429.408574	3.611177e-09
2.275000	2557366.286390	1.506271e-08
2.280000	2564303.999833	1.621462e-08
2.285000	2571242.572537	7.006014e-09
2.290000	2578182.032589	1.880008e-08
2.295000	2585122.380603	1.837777e-08
2.300000	2592063.581029	8.530125e-09
2.305000	2599005.648429	1.674611e-08
2.310000	2605948.648598	2.020686e-08
2.315000	2612892.605674	8.370035e-09
2.320000	2619837.434409	1.735491e-08
2.325000	2626783.141564	1.583853e-08
2.330000	2633729.788138	2.198828e-08
2.335000	2640677.398964	1.295046e-08
2.340000	2647625.923982	1.444410e-08
2.345000	2654575.363535	2.754977e-08
2.350000	2661525.771654	1.909063e-08
2.355000	2668477.141234	1.431117e-08
2.360000	2675429.482000	1.957332e-08
2.365000	2682382.783991	2.350037e-08
2.370000	2689337.057158	6.733784e-09
2.375000	2696292.299458	2.454935e-08
2.380000	2703248.517870	1.870132e-08
2.385000	2710205.738570	2.729091e-08
2.390000	2717163.919500	1.799934e-08
2.395000	2724123.117807	1.471328e-08
2.400000	2731083.324693	2.412301e-08
2.405000	2738044.517763	1.483740e-08
2.410000	2745006.686302	1.351865e-08
2.415000	2751969.878399	1.836091e-08
2.420000	2758934.074529	2.596595e-08
2.425000	2765899.274600	1.476557e-08
2.430000	2772865.447205	2.091190e-08
2.435000	2779832.597716	2.000925e-08
2.440000	2786800.770019	1.116218e-08
2.445000	2793769.895707	1.682653e-08
2.450000	2800740.004946	1.115278e-08
2.455000	2807711.091885	2.319345e-08
2.460000	2814683.210965	2.709593e-08
2.465000	2821656.302104	3.037385e-08
2.470000	2828630.392660	1.575129e-08
2.475000	2835605.505441	2.427344e-08
2.480000	2842581.608459	1.795275e-08
2.485000	2849558.741223	2.123796e-08
2.490000	2856536.862278	2.028622e-08
2.495000	2863515.967084	2.536510e-08
2.500000	2870496.082663	1.677289e-08
2.505000	2877477.205868	1.730787e-08
2.510000	2884459.353260	2.450505e-08
2.515000	2891442.500223	1.695786e-08
2.520000	2898426.660952	2.472689e-08
2.525000	2905411.825932	9.097403e-09
2.530000	2912398.016194	2.192016e-08
2.535000	2919385.188691	1.660413e-08
2.540000	2926373.304483	1.924615e-08
2.545000	2933362.406538	1.660218e-08
2.550000	2940352.485910	1.707167e-08
2.555000	2947343.525963	2.406981e-08
2.560000	2954335.552647	1.188238e-08
2.565000	2961328.533702	2.918242e-08
2.570000	2968322.537557	1.855586e-08
2.575000	2975317.512985	1.515567e-08
2.580000	2982313.520076	1.843253e-08
2.585000	2989310.535924	1.398517e-08
2.590000	2996308.544953	1.855814e-08
2.595000	3003307.592189	2.626210e-08
2.600000	3010307.715922	1.977335e-08
2.605000	3017308.843877	1.882446e-08
2.610000	3024311.012202	2.260823e-08
2.615000	3031314.238438	2.145578e-08
2.620000	3038318.487319	2.271434e-08
2.625000	3045323.801892	2.652664e-08
2.630000	3052330.185082	2.184985e-08
2.635000	3059337.693185	2.271459e-08
2.640000	3066346.267442	2.675528e-08
2.645000	3073355.965596	2.642500e-08
2.650000	3080366.730321	8.734769e-09
2.655000	3087378.576542	2.151752e-08
2.660000	3094391.568815	2.500728e-08
2.665000	3101405.644610	2.187044e-08
2.670000	3108420.820512	2.384886e-08
2.675000	3115437.123148	2.954914e-08
2.680000	3122454.544097	3.085328e-08
2.685000	3129473.098348	2.601743e-08
2.690000	3136492.763729	2.602648e-08
2.695000	3143513.566026	2.238456e-08
2.700000	3150535.461600	2.648055e-08
2.705000	3157558.510599	3.376620e-08
2.710000	3164582.751277	2.497169e-08
2.715000	3171608.143681	3.090396e-08
2.720000	3178634.688218	2.120831e-08
2.725000	3185662.436962	2.270599e-08
2.730000	3192691.342323	2.454346e-08
2.735000	3199721.484718	2.059248e-08
2.740000	3206752.814812	3.005211e-08
2.745000	3213785.338435	2.684857e-08
2.750000	3220819.084893	2.694819e-08
2.755000	3227854.029589	3.029542e-08
2.760000	3234890.161690	2.400702e-08
2.765000	3241927.517550	2.074431e-08
2.770000	3248966.104666	2.694352e-08
2.775000	3256005.898449	2.404386e-08
2.780000	3263046.873643	2.281564e-08
2.785000	3270089.073152	2.091166e-08
2.790000	3277132.467713	2.626526e-08
2.795000	3284177.038416	3.224610e-08
2.800000	3291222.810747	2.831716e-08
2.805000	3298269.800498	2.347032e-08
2.810000	3305317.962531	3.364311e-08
2.815000	3312367.308429	2.841466e-08
2.820000	3319417.808512	3.052826e-08
2.825000	3326469.522372	2.597837e-08
2.830000	3333522.406341	3.074830e-08
2.835000	3340576.475173	2.941477e-08
2.840000	3347631.711849	2.613826e-08
2.845000	3354688.194225	2.925970e-08
2.850000	3361745.855878	2.128882e-08
2.855000	3368804.708994	2.922619e-08
2.860000	3375864.792435	2.918226e-08
2.865000	3382926.038273	3.091254e-08
2.870000	3389988.529676	3.338564e-08
2.875000	3397052.180233	3.136211e-08
2.880000	3404117.001622	3.099626e-08
2.885000	3411183.023391	2.520959e-08
2.890000	3418250.270588	3.375639e-08
2.895000	3425318.701576	2.552862e-08
2.900000	3432388.348429	2.867132e-08
2.905000	3439459.178357	2.450483e-08
2.910000	3446531.179953	2.877536e-08
2.915000	3453604.402799	3.234051e-08
2.920000	3460678.785137	2.245088e-08
2.925000	3467754.354982	2.512934e-08
2.930000	3474831.126114	3.233311e-08
2.935000	3481909.038596	2.640044e-08
2.940000	3488988.135639	3.047826e-08
2.945000	3496068.377795	2.595001e-08
2.950000	3503149.775492	2.813810e-08
2.955000	3510232.323300	3.567077e-08
2.960000	3517315.987494	2.496362e-08
2.965000	3524400.786335	2.980289e-08
2.970000	3531486.713148	2.585836e-08
2.975000	3538573.721139	3.802337e-08
2.980000	3545661.853246	2.730227e-08
2.985000	3552751.070888	2.656351e-08
2.990000	3559841.451492	2.749504e-08
2.995000	3566932.938980	2.582800e-08
3.000000	3574025.500781	2.781055e-08
3.005000	3581119.196090	2.480929e-08
3.010000	3588213.992788	3.403685e-08
3.015000	3595309.909948	2.410565e-08
3.020000	3602406.905392	3.141570e-08
3.025000	3609505.066299	3.185124e-08
3.030000	3616604.310986	2.309689e-08
3.035000	3623704.630583	2.699653e-08
3.040000	3630806.085502	2.725078e-08
3.045000	3637908.669683	3.369915e-08
3.050000	3645012.337429	3.417972e-08
3.055000	3652117.196213	3.090108e-08
3.060000	3659223.153396	2.655623e-08
3.065000	3666330.237818	2.301973e-08
3.070000	3673438.502840	2.400152e-08
3.075000	3680547.859663	1.735102e-08
3.080000	3687658.378937	3.239139e-08
3.085000	3694770.057685	2.012664e-08
3.090000	3701882.960424	2.350132e-08
3.095000	3708996.979669	2.572842e-08
3.100000	3716112.216861	2.851052e-08
3.105000	3723228.670238	2.418471e-08
3.110000	3730346.316499	2.952374e-08
3.115000	3737465.120844	2.202264e-08
3.120000	3744585.161260	2.413141e-08
3.125000	3751706.452644	2.276746e-08
3.130000	3758828.924212	3.544461e-08
3.135000	3765952.631256	2.963265e-08
3.140000	3773077.572331	2.786788e-08
3.145000	3780203.775511	3.246188e-08
3.150000	3787331.215027	2.516202e-08
3.155000	3794459.852011	2.825910e-08
3.160000	3801589.712804	2.220680e-08
3.165000	3808720.870403	2.857095e-08
3.170000	3815853.273428	2.823784e-08
3.175000	3822987.009245	2.895147e-08
3.180000	3830122.051857	2.765325e-08
3.185000	3837258.383023	3.340396e-08
3.190000	3844396.042917	3.115651e-08
3.195000	3851535.037508	2.646610e-08
3.200000	3858675.356929	3.373711e-08
3.205000	3865817.099120	2.484972e-08
3.210000	3872960.268888	3.219009e-08
3.215000	3880104.790173	2.449983e-08
3.220000	3887250.703872	3.186581e-08
3.225000	3894398.046801	3.279971e-08
3.230000	3901546.854762	1.946168e-08
3.235000	3908697.109920	3.259120e-08
3.240000	3915848.812404	3.885200e-08
3.245000	3923001.944314	3.248312e-08
3.250000	3930156.548488	2.377387e-08
3.255000	3937312.616180	3.503154e-08
3.260000	3944470.114877	2.977938e-08
3.265000	3951629.048037	2.832390e-08
3.270000	3958789.408510	3.022895e-08
3.275000	3965951.201112	3.098862e-08
3.280000	3973114.404373	2.994067e-08
3.285000	3980279.001586	2.997048e-08
3.290000	3987445.025402	3.022073e-08
3.295000	3994612.474063	2.361915e-08
3.300000	4001781.292515	2.853487e-08
3.305000	4008951.532934	2.860372e-08
3.310000	4016123.118291	3.419158e-08
3.315000	4023296.081700	3.748890e-08
3.320000	4030470.446452	3.072140e-08
3.325000	4037646.196153	3.329403e-08
3.330000	4044823.315474	2.685027e-08
3.335000	4052001.753901	3.252529e-08
3.340000	4059181.544560	3.329012e-08
3.345000	4066362.703098	3.574850e-08
3.350000	4073545.225359	2.904530e-08
3.355000	4080729.050236	2.749970e-08
3.360000	4087914.178058	2.763943e-08
3.365000	4095100.610376	2.984159e-08
3.370000	4102288.346259	2.245187e-08
3.375000	4109477.409040	2.856878e-08
3.380000	4116667.767032	2.164042e-08
3.385000	4123859.399985	1.797768e-08
3.390000	4131052.287135	2.627416e-08
3.395000	4138246.460956	3.499637e-08
3.400000	4145441.910781	1.967814e-08
3.405000	4152638.656884	3.442950e-08
3.410000	4159836.608648	2.464830e-08
3.415000	4167035.792599	2.251463e-08
3.420000	4174236.263369	2.203351e-08
3.425000	4181437.982828	2.744937e-08
3.430000	4188640.963254	2.354048e-08
3.435000	4195845.200316	2.447073e-08
3.440000	4203050.724105	2.708007e-08
3.445000	4210257.512777	2.427959e-08
3.450000	4217465.536829	2.810857e-08
3.455000	4224674.846059	2.429497e-08
3.460000	4231885.418036	1.692761e-08
3.465000	4239097.286342	3.435551e-08
3.470000	4246310.443689	2.599413e-08
3.475000	4253524.881783	1.423328e-08
3.480000	4260740.624364	1.686904e-08
3.485000	4267957.658068	1.795622e-08
3.490000	4275175.997488	2.455447e-08
3.495000	4282395.646225	3.152200e-08
3.500000	4289616.586540	1.916255e-08
3.505000	4296838.900183	2.375717e-08
3.510000	4304062.524783	3.454111e-08
3.515000	4311287.503608	2.314346e-08
3.520000	4318513.855623	3.052866e-08
3.525000	4325741.534269	2.567434e-08
3.530000	4332970.579448	2.530664e-08
3.535000	4340201.015136	2.879659e-08
3.540000	4347432.802499	2.299483e-08
3.545000	4354665.931808	2.155643e-08
3.550000	4361900.405462	2.790974e-08
3.555000	4369136.260454	2.589986e-08
3.560000	4376373.510576	2.129699e-08
3.565000	4383612.094790	3.267322e-08
3.570000	4390852.046148	2.842264e-08
3.575000	4398093.363188	2.211278e-08
3.580000	4405336.041345	2.131991e-08
3.585000	4412580.100747	2.727278e-08
3.590000	4419825.561568	2.127839e-08
3.595000	4427072.372563	2.201305e-08
3.600000	4434320.606289	3.095846e-08
3.605000	4441570.225931	3.044267e-08
3.610000	4448821.237092	3.030958e-08
3.615000	4456073.624513	3.238877e-08
3.620000	4463327.383247	2.535591e-08
3.625000	4470582.515616	3.197436e-08
3.630000	4477839.039915	3.060850e-08
3.635000	4485096.952210	3.460224e-08
3.640000	4492356.247811	2.646598e-08
3.645000	4499616.922044	3.277408e-08
3.650000	4506879.020826	3.062314e-08
3.655000	4514142.507860	2.631831e-08
3.660000	4521407.345168	2.491453e-08
3.665000	4528673.552944	2.724926e-08
3.670000	4535941.149885	2.186824e-08
3.675000	4543210.087347	2.768230e-08
3.680000	4550480.380454	2.571152e-08
3.685000	4557751.995567	3.678476e-08
3.690000	4565024.941062	2.263262e-08
3.695000	4572299.257333	1.959950e-08
3.700000	4579574.897727	3.330943e-08
3.705000	4586851.903537	2.998882e-08
3.710000	4594130.219976	2.172010e-08
3.715000	4601409.902371	2.481138e-08
3.720000	4608690.925275	3.295496e-08
3.725000	4615973.258405	2.483589e-08
3.730000	4623256.892122	3.281258e-08
3.735000	4630541.831336	2.587234e-08
3.740000	4637828.052184	1.514042e-08
3.745000	4645115.560127	2.431036e-08
3.750000	4652404.298485	2.252664e-08
3.755000	4659694.331710	2.041735e-08
3.760000	4666985.625246	1.804408e-08
3.765000	4674278.166672	2.164242e-08
3.770000	4681571.956676	1.676807e-08
3.775000	4688866.990582	2.435186e-08
3.780000	4696163.218804	2.088095e-08
3.785000	4703460.704315	2.037821e-08
3.790000	4710759.382685	2.039129e-08
3.795000	4718059.273070	2.632533e-08
3.800000	4725360.344369	2.009958e-08
3.805000	4732662.599060	1.368071e-08
3.810000	4739966.033848	2.250792e-08
3.815000	4747270.573533	2.266792e-08
3.820000	4754576.251481	1.154858e-08
3.825000	4761883.051046	1.808220e-08
3.830000	4769190.970255	1.303904e-08
3.835000	4776499.966800	1.624225e-08
3.840000	4783810.054512	1.754727e-08
3.845000	4791121.244724	2.101316e-08
3.850000	4798433.498760	1.251141e-08
3.855000	4805746.803248	1.807043e-08
3.860000	4813061.172007	1.763877e-08
3.865000	4820376.581438	1.119909e-08
3.870000	4827693.024995	1.353091e-08
3.875000	4835010.495826	1.498237e-08
3.880000	4842328.989093	1.311101e-08
3.885000	4849648.472215	1.886633e-08
3.890000	4856968.979320	1.382033e-08
3.895000	4864290.461006	6.632911e-09
3.900000	4871612.948034	1.069432e-08
3.905000	4878936.422918	1.646597e-08
3.910000	4886260.882601	1.612101e-08
3.915000	4893586.299337	1.586509e-08
3.920000	4900912.687261	9.842897e-09
3.925000	4908240.038217	1.336954e-08
3.930000	4915568.378037	1.424295e-08
3.935000	4922897.679419	1.080844e-08
3.940000	4930227.931790	1.903323e-08
3.945000	4937559.119102	1.629108e-08
3.950000	4944891.267634	2.161933e-08
3.955000	4952224.382047	2.103049e-08
3.960000	4959558.461925	1.156578e-08
3.965000	4966893.495002	2.026791e-08
3.970000	4974229.489697	1.455247e-08
3.975000	4981566.506650	2.266126e-08
3.980000	4988904.485609	1.291136e-08
3.985000	4996243.498903	1.955295e-08
3.990000	5003583.537610	1.493067e-08
3.995000	5010924.555010	1.338558e-08
4.000000	5018266.558215	2.307660e-08
4.005000	5025609.567308	2.492726e-08
4.010000	5032953.628792	1.929499e-08
4.015000	5040298.717216	1.393605e-08
4.020000	5047644.758793	1.483118e-08
4.025000	5054991.800675	1.981871e-08
4.030000	5062339.875674	2.358210e-08
4.035000	5069688.975106	2.167129e-08
4.040000	5077039.111737	2.424092e-08
4.045000	5084390.237454	2.787149e-08
4.050000	5091742.339039	2.051473e-08
4.055000	5099095.456172	1.576592e-08
4.060000	5106449.546649	2.224057e-08
4.065000	5113804.638386	1.244630e-08
4.070000	5121160.772722	1.850370e-08
4.075000	5128517.932464	1.901277e-08
4.080000	5135876.093978	1.416381e-08
4.085000	5143235.319885	2.492690e-08
4.090000	5150595.561352	1.976595e-08