0.000000	0.000000	6.152714e-06
0.005000	54.609568	1.646245e-06
0.010000	198.780978	1.910068e-06
0.015000	437.174469	1.872124e-06
0.020000	769.568298	1.841339e-06
0.025000	1194.322759	1.825173e-06
0.030000	1710.410610	1.799924e-06
0.035000	2316.732583	1.774221e-06
0.040000	3012.295115	1.770960e-06
0.045000	3796.105644	1.733815e-06
0.050000	4667.066275	1.720334e-06
0.055000	5624.220988	1.687610e-06
0.060000	6666.481540	1.678669e-06
0.065000	7792.919915	1.658509e-06
0.070000	9002.546652	1.637823e-06
0.075000	10294.327936	1.616893e-06
0.080000	11667.362758	1.599209e-06
0.085000	13120.643231	1.578046e-06
0.090000	14653.238792	1.572204e-06
0.095000	16264.233983	1.548946e-06
0.100000	17952.640071	1.525012e-06
0.105000	19717.591228	1.509848e-06
0.110000	21558.182073	1.492649e-06
0.115000	23473.513750	1.468801e-06
0.120000	25462.699274	1.456617e-06
0.125000	27524.869779	1.442677e-06
0.130000	29659.146176	1.419449e-06
0.135000	31864.685467	1.399129e-06
0.140000	34140.667560	1.392155e-06
0.145000	36486.260864	1.379424e-06
0.150000	38900.614220	1.359868e-06
0.155000	41382.930233	1.344590e-06
0.160000	43932.418432	1.323224e-06
0.165000	46548.285331	1.311395e-06
0.170000	49229.755873	1.292652e-06
0.175000	51976.039646	1.284821e-06
0.180000	54786.443078	1.262558e-06
0.185000	57660.116992	1.256863e-06
0.190000	60596.394694	1.233720e-06
0.195000	63594.530229	1.220881e-06
0.200000	66653.779898	1.204241e-06
0.205000	69773.426967	1.195063e-06
0.210000	72952.791685	1.183806e-06
0.215000	76191.163498	1.160437e-06
0.220000	79487.874780	1.153006e-06
0.225000	82842.178332	1.138836e-06
0.230000	86253.464513	1.116987e-06
0.235000	89721.041580	1.110850e-06
0.240000	93244.244251	1.096867e-06
0.245000	96822.408992	1.088456e-06
0.250000	100454.920895	1.065181e-06
0.255000	104141.092911	1.057483e-06
0.260000	107880.344086	1.055450e-06
0.265000	111672.009026	1.034818e-06
0.270000	115515.509886	1.020199e-06
0.275000	119410.244240	1.005328e-06
0.280000	123355.572391	9.938804e-07
0.285000	127350.933149	9.891462e-07
0.290000	131395.732305	9.772568e-07
0.295000	135489.426809	9.617752e-07
0.300000	139631.433826	9.470526e-07
0.305000	143821.189336	9.405457e-07
0.310000	148058.136131	9.351357e-07
0.315000	152341.762738	9.183346e-07
0.320000	156671.476376	9.044074e-07
0.325000	161046.790215	8.927673e-07
0.330000	165467.149028	8.846912e-07
0.335000	169932.016089	8.794345e-07
0.340000	174440.893445	8.716563e-07
0.345000	178993.249488	8.613556e-07
0.350000	183588.565335	8.467147e-07
0.355000	188226.359077	8.420223e-07
0.360000	192906.107362	8.256107e-07
0.365000	197627.311467	8.122539e-07
0.370000	202389.489865	8.095709e-07
0.375000	207192.185515	8.037509e-07
0.380000	212034.889578	7.935364e-07
0.385000	216917.155627	7.819512e-07
0.390000	221838.511222	7.680288e-07
0.395000	226798.488446	7.618587e-07
0.400000	231796.621461	7.515132e-07
0.405000	236832.477137	7.430042e-07
0.410000	241905.619134	7.317540e-07
0.415000	247015.596311	7.269981e-07
0.420000	252162.007964	7.135841e-07
0.425000	257344.366088	7.065025e-07
0.430000	262562.294135	7.055703e-07
0.435000	267815.350355	6.920638e-07
0.440000	273103.115769	6.813029e-07
0.445000	278425.170289	6.858231e-07
0.450000	283781.146073	6.713205e-07
0.455000	289170.596820	6.544770e-07
0.460000	294593.156476	6.590198e-07
0.465000	300048.398353	6.499335e-07
0.470000	305535.968763	6.371590e-07
0.475000	311055.419769	6.364411e-07
0.480000	316606.462594	6.240682e-07
0.485000	322188.636304	6.167286e-07
0.490000	327801.622769	6.145749e-07
0.495000	333445.059922	6.047620e-07
0.500000	339118.558668	5.943673e-07
0.505000	344821.797148	5.886767e-07
0.510000	350554.415612	5.838771e-07
0.515000	356316.070873	5.699948e-07
0.520000	362106.410743	5.756216e-07
0.525000	367925.119539	5.520683e-07
0.530000	373771.830380	5.509959e-07
0.535000	379646.239353	5.483674e-07
0.540000	385547.990318	5.431566e-07
0.545000	391476.765201	5.377389e-07
0.550000	397432.234896	5.248272e-07
0.555000	403414.099026	5.265487e-07
0.560000	409422.028865	5.179217e-07
0.565000	415455.704469	5.111188e-07
0.570000	421514.835097	5.068662e-07
0.575000	427599.121235	5.023541e-07
0.580000	433708.253608	4.926414e-07
0.585000	439841.974284	4.906445e-07
0.590000	445999.965511	4.829299e-07
0.595000	452181.953314	4.773769e-07
0.600000	458387.707652	4.778902e-07
0.605000	464616.911304	4.731306e-07
0.610000	470869.306182	4.600933e-07
0.615000	477144.617520	4.504888e-07
0.620000	483442.569549	4.477758e-07
0.625000	489762.912065	4.517161e-07
0.630000	496105.385298	4.364616e-07
0.635000	502469.715757	4.358157e-07
0.640000	508855.677314	4.255213e-07
0.645000	515262.975806	4.244393e-07
0.650000	521691.411200	4.168882e-07
0.655000	528140.729122	4.204685e-07
0.660000	534610.675514	4.116992e-07
0.665000	541101.001399	4.023969e-07
0.670000	547611.482499	4.037273e-07
0.675000	554141.890224	4.036089e-07
0.680000	560692.010311	3.928147e-07
0.685000	567261.575621	3.818293e-07
0.690000	573850.399778	3.820655e-07
0.695000	580458.262597	3.774477e-07
0.700000	587084.925777	3.727906e-07
0.705000	593730.179415	3.651777e-07
0.710000	600393.816369	3.677463e-07
0.715000	607075.621830	3.610647e-07
0.720000	613775.399923	3.552610e-07
0.725000	620492.951350	3.501209e-07
0.730000	627228.077126	3.445238e-07
0.735000	633980.575823	3.448361e-07
0.740000	640750.219856	3.413554e-07
0.745000	647536.842965	3.284295e-07
0.750000	654340.243816	3.356599e-07
0.755000	661160.239376	3.257557e-07
0.760000	667996.648444	3.339808e-07
0.765000	674849.276914	3.147174e-07
0.770000	681717.957497	3.226228e-07
0.775000	688602.499582	3.179072e-07
0.780000	695502.718293	3.091887e-07
0.785000	702418.442195	3.098486e-07
0.790000	709349.511477	3.029378e-07
0.795000	716295.749880	3.007425e-07
0.800000	723256.984060	2.966361e-07
0.805000	730233.031738	2.922503e-07
0.810000	737223.781959	2.910205e-07
0.815000	744228.995781	2.860871e-07
0.820000	751248.560693	2.895839e-07
0.825000	758282.279158	2.805844e-07
0.830000	765329.995256	2.831302e-07
0.835000	772391.572217	2.783255e-07
0.840000	779466.840351	2.777298e-07
0.845000	786555.653559	2.656686e-07
0.850000	793657.882497	2.685211e-07
0.855000	800773.357143	2.699516e-07
0.860000	807901.958505	2.683474e-07
0.865000	815043.548529	2.643777e-07
0.870000	822197.986225	2.584235e-07
0.875000	829365.135466	2.556657e-07
0.880000	836544.849931	2.543901e-07
0.885000	843737.025301	2.456197e-07
0.890000	850941.493459	2.351374e-07
0.895000	858158.154677	2.399785e-07
0.900000	865386.864867	2.391464e-07
0.905000	872627.506633	2.349894e-07
0.910000	879879.940281	2.318772e-07
0.915000	887144.078952	2.302151e-07
0.920000	894419.753395	2.291198e-07
0.925000	901706.880824	2.217895e-07
0.930000	909005.303187	2.175413e-07
0.935000	916314.941172	2.204324e-07
0.940000	923635.667883	2.195500e-07
0.945000	930967.377116	2.174560e-07
0.950000	938309.922603	2.096656e-07
0.955000	945663.205968	2.082984e-07
0.960000	953027.135063	2.144012e-07
0.965000	960401.594693	2.035687e-07
0.970000	967786.466868	2.109699e-07
0.975000	975181.659277	1.990349e-07
0.980000	982587.088716	2.056397e-07
0.985000	990002.627046	1.996915e-07
0.990000	997428.209160	1.961477e-07
0.995000	1004863.727648	1.945406e-07
1.000000	1012309.079385	1.975509e-07
1.005000	1019764.164795	1.911306e-07
1.010000	1027228.888988	1.921211e-07
1.015000	1034703.156091	1.883623e-07
1.020000	1042186.880702	1.836231e-07
1.025000	1049679.952290	1.853167e-07
1.030000	1057182.240716	1.815217e-07
1.035000	1064693.695296	1.800022e-07
1.040000	1072214.209311	1.800399e-07
1.045000	1079743.674396	1.699511e-07
1.050000	1087281.986637	1.783848e-07
1.055000	1094829.049199	1.753832e-07
1.060000	1102384.788493	1.698542e-07
1.065000	1109949.116244	1.637591e-07
1.070000	1117521.943806	1.655219e-07
1.075000	1125103.161008	1.652256e-07
1.080000	1132692.670985	1.635791e-07
1.085000	1140290.430305	1.610344e-07
1.090000	1147896.356756	1.629176e-07
1.095000	1155510.329792	1.606473e-07
1.100000	1163132.322274	1.578457e-07
1.105000	1170762.249202	1.625765e-07
1.110000	1178400.045182	1.568705e-07
1.115000	1186045.640326	1.580426e-07
1.120000	1193698.920170	1.497771e-07
1.125000	1201359.869566	1.587584e-07
1.130000	1209028.413563	1.450421e-07
1.135000	1216704.454685	1.485243e-07
1.140000	1224387.941965	1.517377e-07
1.145000	1232078.788298	1.479638e-07
1.150000	1239776.931005	1.493665e-07
1.155000	1247482.325672	1.446735e-07
1.160000	1255194.827572	1.448481e-07
1.165000	1262914.418329	1.439935e-07
1.170000	1270641.008782	1.457602e-07
1.175000	1278374.528148	1.368736e-07
1.180000	1286114.889054	1.376864e-07
1.185000	1293862.030576	1.284236e-07
1.190000	1301615.898773	1.262978e-07
1.195000	1309376.390857	1.240524e-07
1.200000	1317143.442141	1.312775e-07
1.205000	1324916.996820	1.339941e-07
1.210000	1332696.963818	1.234311e-07
1.215000	1340483.330820	1.251769e-07
1.220000	1348275.964376	1.231242e-07
1.225000	1356074.839979	1.266060e-07
1.230000	1363879.900561	1.238263e-07
1.235000	1371691.072956	1.191017e-07
1.240000	1379508.276677	1.250138e-07
1.245000	1387331.456715	1.167766e-07
1.250000	1395160.558261	1.188825e-07
1.255000	1402995.495736	1.143555e-07
1.260000	1410836.224271	1.139985e-07
1.265000	1418682.681185	1.122404e-07
1.270000	1426534.776814	1.127349e-07
1.275000	1434392.495548	1.043484e-07
1.280000	1442255.751112	9.742773e-08
1.285000	1450124.480492	1.093631e-07
1.290000	1457998.649101	1.108996e-07
1.295000	1465878.166677	1.064425e-07
1.300000	1473762.984986	1.011907e-07
1.305000	1481653.036510	9.999242e-08
1.310000	1489548.263774	1.082515e-07
1.315000	1497448.626599	1.037636e-07
1.320000	1505354.054474	9.969091e-08
1.325000	1513264.526245	9.660846e-08
1.330000	1521179.978727	1.000626e-07
1.335000	1529100.349929	9.714922e-08
1.340000	1537025.618934	9.003487e-08
1.345000	1544955.711925	9.623950e-08
1.350000	1552890.602967	9.409643e-08
1.355000	1560830.250169	9.696543e-08
1.360000	1568774.605444	9.757820e-08
1.365000	1576723.616741	9.307214e-08
1.370000	1584677.232042	9.210470e-08
1.375000	1592635.426958	8.651683e-08
1.380000	1600598.185059	8.319198e-08
1.385000	1608565.429342	8.452011e-08
1.390000	1616537.115503	8.348766e-08
1.395000	1624513.207436	8.712562e-08
1.400000	1632493.648772	8.934155e-08
1.405000	1640478.417687	8.744934e-08
1.410000	1648467.467088	8.280270e-08
1.415000	1656460.757057	8.610542e-08
1.420000	1664458.243411	8.005593e-08
1.425000	1672459.901925	8.328567e-08
1.430000	1680465.694450	8.480899e-08
1.435000	1688475.599167	8.365637e-08
1.440000	1696489.562576	7.487249e-08
1.445000	1704507.559713	7.846552e-08
1.450000	1712529.547837	8.779801e-08
1.455000	1720555.502673	7.328786e-08
1.460000	1728585.388947	7.767022e-08
1.465000	1736619.147489	7.733208e-08
1.470000	1744656.779601	7.624215e-08
1.475000	1752698.245675	6.736656e-08
1.480000	1760743.550647	7.534212e-08
1.485000	1768792.659860	7.504174e-08
1.490000	1776845.534536	7.498620e-08
1.495000	1784902.135883	7.022120e-08
1.500000	1792962.474839	7.636774e-08
1.505000	1801026.541556	7.475556e-08
1.510000	1809094.269358	6.524170e-08
1.515000	1817165.674634	6.867570e-08
1.520000	1825240.708113	7.303354e-08
1.525000	1833319.332584	6.906642e-08
1.530000	1841401.543388	7.169983e-08
1.535000	1849487.316174	6.991400e-08
1.540000	1857576.611422	5.952457e-08
1.545000	1865669.395250	7.036971e-08
1.550000	1873765.662574	7.159543e-08
1.555000	1881865.385823	6.637153e-08
1.560000	1889968.520925	6.700777e-08
1.565000	1898075.087487	6.481535e-08
1.570000	1906185.017934	6.875900e-08
1.575000	1914298.300867	6.414894e-08
1.580000	1922414.925866	6.424658e-08
1.585000	1930534.852031	6.062600e-08
1.590000	1938658.033860	6.114739e-08
1.595000	1946784.453223	6.118064e-08
1.600000	1954914.101646	5.860877e-08
1.605000	1963046.924342	6.341441e-08
1.610000	1971182.873171	5.580482e-08
1.615000	1979321.945641	6.057251e-08
1.620000	1987464.071754	5.958369e-08
1.625000	1995609.275761	4.996900e-08
1.630000	2003757.464895	6.202823e-08
1.635000	2011908.610616	5.324704e-08
1.640000	2020062.747022	5.787950e-08
1.645000	2028219.758216	5.901984e-08
1.650000	2036379.671550	5.859130e-08
1.655000	2044542.419639	5.690516e-08
1.660000	2052708.006878	5.825989e-08
1.665000	2060876.382824	4.961195e-08
1.670000	2069047.508180	5.084006e-08
1.675000	2077221.344120	4.533220e-08
1.680000	2085397.889571	5.500833e-08
1.685000	2093577.083096	4.632193e-08
1.690000	2101758.877937	5.372006e-08
1.695000	2109943.270039	4.861304e-08
1.700000	2118130.189783	5.393170e-08
1.705000	2126319.633000	4.863722e-08
1.710000	2134511.529318	4.694522e-08
1.715000	2142705.899534	4.227849e-08
1.720000	2150902.672294	5.435814e-08
1.725000	2159101.813126	4.941519e-08
1.730000	2167303.306060	3.968971e-08
1.735000	2175507.099305	4.753230e-08
1.740000	2183713.211448	5.404716e-08
1.745000	2191921.558182	4.145255e-08
1.750000	2200132.114772	4.139967e-08
1.755000	2208344.850787	4.820157e-08
1.760000	2216559.752926	4.642829e-08
1.765000	2224776.786388	4.667564e-08
1.770000	2232995.888084	4.204919e-08
1.775000	2241217.070826	3.739163e-08
1.780000	2249440.276626	4.185717e-08
1.785000	2257665.453482	3.651499e-08
1.790000	2265892.611510	3.283944e-08
1.795000	2274121.691936	4.526709e-08
1.800000	2282352.688033	3.851227e-08
1.805000	2290585.549853	5.154250e-08
1.810000	2298820.242841	3.146041e-08
1.815000	2307056.729310	3.477167e-08
1.820000	2315294.997389	3.873146e-08
1.825000	2323535.023224	3.754420e-08
1.830000	2331776.744798	3.649651e-08
1.835000	2340020.184137	2.894086e-08
1.840000	2348265.251124	3.634026e-08
1.845000	2356511.961524	2.540700e-08
1.850000	2364760.289403	3.720578e-08
1.855000	2373010.188807	3.282236e-08
1.860000	2381261.615408	3.539061e-08
1.865000	2389514.517369	3.204000e-08
1.870000	2397768.914300	3.257869e-08
1.875000	2406024.741322	3.312250e-08
1.880000	2414281.954661	2.642260e-08
1.885000	2422540.522568	2.291991e-08
1.890000	2430800.381349	2.660216e-08
1.895000	2439061.515717	2.902579e-08
1.900000	2447323.928291	1.860250e-08
1.905000	2455587.534460	2.332927e-08
1.910000	2463852.329435	2.629032e-08
1.915000	2472118.326056	2.390876e-08
1.920000	2480385.428919	2.728708e-08
1.925000	2488653.688028	2.360617e-08
1.930000	2496923.059379	2.609917e-08
1.935000	2505193.507611	2.222517e-08
1.940000	2513465.028393	2.279050e-08
1.945000	2521737.587098	2.431558e-08
1.950000	2530011.164413	2.679700e-08
1.955000	2538285.764234	1.872861e-08
1.960000	2546561.328282	1.923631e-08
1.965000	2554837.840750	2.462899e-08
1.970000	2563115.298326	2.493646e-08
1.975000	2571393.625708	2.532170e-08
1.980000	2579672.887797	1.381356e-08
1.985000	2587952.972190	2.282697e-08
1.990000	2596233.875604	2.292669e-08
1.995000	2604515.616021	2.292811e-08
2.000000	2612798.099303	3.031087e-08
2.005000	2621081.352955	1.847555e-08
2.010000	2629365.321658	1.311865e-08
2.015000	2637649.993662	2.832645e-08
2.020000	2645935.328401	2.452155e-08
2.025000	2654221.288344	1.852316e-08
2.030000	2662507.916514	1.988169e-08
2.035000	2670795.132306	1.401029e-08
2.040000	2679082.911250	1.131644e-08
2.045000	2687371.255181	1.188896e-08
2.050000	2695660.157241	2.228676e-08
2.055000	2703949.588614	1.041654e-08
2.060000	2712239.519153	1.094555e-08
2.065000	2720529.950309	1.665165e-08
2.070000	2728820.841415	1.596341e-08
2.075000	2737112.190124	1.113567e-08
2.080000	2745404.000631	8.430946e-09
2.085000	2753696.224816	1.248710e-08
2.090000	2761988.846765	1.781477e-08
2.095000	2770281.878909	1.435139e-08
2.100000	2778575.309547	1.554178e-08
2.105000	2786869.101264	1.467472e-08
2.110000	2795163.300065	8.830315e-09
2.115000	2803457.841712	6.177213e-09
2.120000	2811752.713452	1.181504e-08
2.125000	2820047.922673	1.221913e-08
2.130000	2828343.438713	7.370216e-09
2.135000	2836639.253626	8.377993e-09
2.140000	2844935.412248	4.346842e-09
2.145000	2853231.839768	7.002069e-09
2.150000	2861528.549061	3.379041e-09
2.155000	2869825.525924	1.087536e-09
2.160000	2878122.784727	6.459577e-09
2.165000	2886420.310251	4.156068e-09
2.170000	2894718.090788	9.051193e-09
2.175000	2903016.138816	1.053755e-08
2.180000	2911314.456062	1.692993e-09
2.185000	2919613.034698	8.413230e-09
2.190000	2927911.870462	1.132104e-08
2.195000	2936211.004739	-6.897426e-11
2.200000	2944510.405883	2.665083e-09
2.205000	2952810.037413	4.624764e-09
2.210000	2961109.950063	1.168418e-08
2.215000	2969410.141072	7.718013e-09
2.220000	2977710.575557	1.012270e-08
2.225000	2986011.286455	9.606059e-09
2.230000	2994312.238808	4.733250e-09
2.235000	3002613.527291	8.917759e-09
2.240000	3010915.081742	5.744731e-09
2.245000	3019216.927361	6.131376e-09
2.250000	3027519.075111	3.398891e-09
2.255000	3035821.555394	5.886433e-09
2.260000	3044124.361489	2.785893e-09
2.265000	3052427.514365	7.178612e-09
2.270000	3060731.035860	-1.136802e-09
2.275000	3069034.919240	7.287103e-09
2.280000	3077339.188243	8.908729e-09
2.285000	3085643.865821	-4.976465e-09
2.290000	3093948.935361	1.276835e-08
2.295000	3102254.437899	1.095999e-08
2.300000	3110560.346869	2.137283e-09
2.305000	3118866.690145	7.591713e-09
2.310000	3127173.499684	7.087187e-09
2.315000	3135480.763279	6.796571e-09
2.320000	3143788.480411	1.342564e-10
2.325000	3152096.698121	6.785103e-09
2.330000	3160405.376480	3.464922e-09
2.335000	3168714.527779	9.807640e-09
2.340000	3177024.135220	9.413037e-09
2.345000	3185334.198048	6.391987e-09
2.350000	3193644.711950	1.035564e-08
2.355000	3201955.684850	4.704596e-09
2.360000	3210267.086812	1.179353e-08
2.365000	3218578.931833	8.292537e-09
2.370000	3226891.220815	3.567603e-09
2.375000	3235203.932515	3.445114e-09
2.380000	3243517.046138	1.636508e-08
2.385000	3251830.606773	9.142336e-09
2.390000	3260144.586267	7.545679e-09
2.395000	3268458.973332	1.030011e-08
2.400000	3276773.776678	1.519236e-08
2.405000	3285088.954711	1.213629e-08
2.410000	3293404.514572	1.227712e-08
2.415000	3301720.498172	6.385550e-09
2.420000	3310036.839088	1.431334e-08
2.425000	3318353.570879	1.124869e-08
2.430000	3326670.667260	1.164193e-08
2.435000	3334988.177735	6.712528e-09
2.440000	3343306.012843	5.423510e-09
2.445000	3351624.256136	5.733798e-09
2.450000	3359942.900564	9.143808e-09
2.455000	3368261.903722	5.999186e-09
2.460000	3376581.300307	6.306428e-09
2.465000	3384901.047495	1.173665e-08
2.470000	3393221.217711	6.342688e-09
2.475000	3401541.759436	2.212180e-08
2.480000	3409862.677567	6.783208e-09
2.485000	3418183.982200	7.118193e-09
2.490000	3426505.666505	4.114606e-09
2.495000	3434827.748211	2.817182e-09
2.500000	3443150.210570	3.758979e-09
2.505000	3451473.113673	8.792954e-09
2.510000	3459796.399108	1.133840e-08
2.515000	3468120.059983	1.053646e-08
2.520000	3476444.146342	7.925612e-09
2.525000	3484768.599450	1.928498e-08
2.530000	3493093.465162	9.344064e-09
2.535000	3501418.733927	1.294875e-08
2.540000	3509744.367277	5.555687e-09
2.545000	3518070.357967	3.895755e-09
2.550000	3526396.727509	1.371528e-09
2.555000	3534723.455398	7.726283e-09
2.560000	3543050.541036	7.142045e-09
2.565000	3551377.980039	8.316115e-09
2.570000	3559705.788120	5.151572e-09
2.575000	3568033.899433	1.021839e-08
2.580000	3576362.365146	1.201407e-08
2.585000	3584691.175101	5.529673e-09
2.590000	3593020.331229	7.232646e-09
2.595000	3601349.843150	9.534901e-09
2.600000	3609679.695443	3.432059e-09
2.605000	3618009.877294	8.875900e-09
2.610000	3626340.399199	3.300118e-09
2.615000	3634671.232630	7.386980e-09
2.620000	3643002.381340	6.885968e-09
2.625000	3651333.790984	7.675687e-09
2.630000	3659665.456867	8.136015e-09
2.635000	3667997.372420	1.181617e-08
2.640000	3676329.509439	6.229794e-09
2.645000	3684661.865729	5.543676e-09
2.650000	3692994.446358	1.064583e-08
2.655000	3701327.249886	4.762607e-09
2.660000	3709660.194099	9.439394e-09
2.665000	3717993.360853	7.962407e-09
2.670000	3726326.632534	6.673820e-09
2.675000	3734660.029506	8.920225e-09
2.680000	3742993.526748	4.114821e-09
2.685000	3751327.120806	1.294834e-08
2.690000	3759660.789463	2.233462e-09
2.695000	3767994.535805	6.045350e-09
2.700000	3776328.335242	1.129840e-08
2.705000	3784662.191509	-1.922790e-09
2.710000	3792996.086751	1.781379e-09
2.715000	3801329.996280	3.434321e-10
2.720000	3809663.937118	1.024846e-08
2.725000	3817997.826027	3.264784e-09
2.730000	3826331.680425	2.743482e-09
2.735000	3834665.506746	6.585233e-09
2.740000	3842999.284220	5.545547e-09
2.745000	3851332.984431	-1.043218e-09
2.750000	3859666.568855	4.375271e-09
2.755000	3868000.017019	-2.511131e-09
2.760000	3876333.391285	5.861339e-10
2.765000	3884666.626739	2.995917e-09
2.770000	3892999.691714	4.947415e-09
2.775000	3901332.611871	7.330066e-09
2.780000	3909665.358196	-3.980935e-09
2.785000	3917997.905425	-8.305024e-10
2.790000	3926330.249197	6.894203e-09
2.795000	3934662.365067	6.129463e-09
2.800000	3942994.306007	-2.251232e-10
2.805000	3951326.002747	5.686841e-09
2.810000	3959657.446517	2.904847e-09
2.815000	3967988.675648	2.514977e-09
2.820000	3976319.645050	4.154132e-09
2.825000	3984650.350010	1.442385e-09
2.830000	3992980.779321	1.483516e-09
2.835000	4001310.949583	-6.419743e-09
2.840000	4009640.816158	1.900468e-09
2.845000	4017970.374735	4.444374e-09
2.850000	4026299.600806	3.589490e-09
2.855000	4034628.469243	-3.701551e-09
2.860000	4042956.974633	6.372542e-09
2.865000	4051285.108381	-2.253112e-09
2.870000	4059612.912873	2.251597e-09
2.875000	4067940.330919	5.381746e-10
2.880000	4076267.389118	2.849389e-09
2.885000	4084594.093531	8.190615e-09
2.890000	4092920.380286	-8.324430e-09
2.895000	4101246.259887	-2.835810e-10
2.900000	4109571.708060	2.648014e-09
2.905000	4117896.688070	2.829540e-09
2.910000	4126221.238432	-3.600082e-09
2.915000	4134545.238667	-4.157925e-09
2.920000	4142868.697801	-1.734095e-09
2.925000	4151191.691498	5.832083e-09
2.930000	4159514.133967	-1.879114e-09
2.935000	4167836.018971	-6.415410e-10
2.940000	4176157.354253	-3.867289e-09
2.945000	4184478.160153	5.128494e-09
2.950000	4192798.344113	-1.166238e-09
2.955000	4201117.967587	-1.035055e-08
2.960000	4209436.974264	-3.399669e-09
2.965000	4217755.354876	-6.146601e-09
2.970000	4226073.094609	-3.949010e-09
2.975000	4234390.172274	5.563091e-10
2.980000	4242706.552497	-6.616355e-09
2.985000	4251022.288471	-1.077969e-08
2.990000	4259337.288236	-1.460943e-09
2.995000	4267651.561070	-3.268456e-09
3.000000	4275965.076308	-6.356528e-09
3.005000	4284277.874427	-2.047943e-09
3.010000	4292589.928970	-2.822264e-09
3.015000	4300901.221372	-6.202591e-09
3.020000	4309211.785253	-1.552592e-09
3.025000	4317521.565912	-5.743970e-09
3.030000	4325830.579452	-7.566254e-09
3.035000	4334138.832722	-4.001077e-09
3.040000	4342446.291317	-5.797601e-09
3.045000	4350752.983459	-1.359146e-08
3.050000	4359058.823940	-5.364665e-09
3.055000	4367363.838413	-7.519301e-09
3.060000	4375668.004760	-1.117239e-08
3.065000	4383971.314526	-3.011740e-09
3.070000	4392273.756052	-7.940216e-09
3.075000	4400575.280038	-5.205671e-09
3.080000	4408875.933492	-6.378992e-09
3.085000	4417175.692641	-7.981311e-09
3.090000	4425474.527685	-9.056131e-09
3.095000	4433772.444148	-5.857932e-09
3.100000	4442069.478695	-1.267762e-08
3.105000	4450365.542426	-1.481968e-08
3.110000	4458660.649812	-1.174000e-08
3.115000	4466954.816058	-7.738351e-09
3.120000	4475248.037937	-8.637665e-09
3.125000	4483540.253464	-2.038147e-08
3.130000	4491831.509730	-7.192615e-09
3.135000	4500121.802357	-6.103268e-09
3.140000	4508411.120385	-1.034426e-08
3.145000	4516699.491654	-8.264345e-09
3.150000	4524986.840223	-2.219711e-08
3.155000	4533273.240901	-1.417328e-08
3.160000	4541558.691834	-1.195721e-08
3.165000	4549843.116098	-1.575511e-08
3.170000	4558126.552837	-9.545935e-09
3.175000	4566409.017092	-1.780322e-08
3.180000	4574690.446909	-1.465499e-08
3.185000	4582970.883856	-1.473107e-08
3.190000	4591250.245675	-5.252924e-09
3.195000	4599528.611264	-1.283663e-08
3.200000	4607805.912115	-1.709576e-08
3.205000	4616082.151123	-1.450064e-08
3.210000	4624357.290364	-1.173927e-08
3.215000	4632631.318771	-1.454774e-08
3.220000	4640904.271102	-1.098812e-08
3.225000	4649176.093180	-1.919292e-08
3.230000	4657446.709689	-1.672711e-08
3.235000	4665716.223595	-1.955434e-08
3.240000	4673984.479839	-2.558692e-08
3.245000	4682251.570496	-1.881059e-08
3.250000	4690517.425986	-1.683003e-08
3.255000	4698782.065365	-1.246988e-08
3.260000	4707045.391369	-1.770705e-08
3.265000	4715307.497760	-2.349219e-08
3.270000	4723568.289822	-1.890939e-08
3.275000	4731827.797449	-1.838104e-08
3.280000	4740086.009199	-2.055230e-08
3.285000	4748342.908517	-2.190007e-08
3.290000	4756598.512002	-1.707112e-08
3.295000	4764852.798864	-3.079708e-08
3.300000	4773105.739353	-1.775287e-08
3.305000	4781357.370391	-2.185313e-08
3.310000	4789607.636086	-2.982988e-08
3.315000	4797856.594858	-2.437443e-08
3.320000	4806104.220980	-2.408514e-08
3.325000	4814350.509138	-2.250460e-08
3.330000	4822595.451807	-1.371151e-08
3.335000	4830839.079204	-2.519216e-08
3.340000	4839081.384748	-1.651502e-08
3.345000	4847322.393422	-1.865761e-08
3.350000	4855562.082922	-1.825374e-08
3.355000	4863800.512461	-2.446962e-08
3.360000	4872037.636243	-1.404254e-08
3.365000	4880273.454770	-2.028037e-08
3.370000	4888508.022838	-1.968503e-08
3.375000	4896741.386307	-1.420313e-08
3.380000	4904973.457784	-2.497479e-08
3.385000	4913204.327390	-2.209431e-08
3.390000	4921433.945607	-2.357465e-08
3.395000	4929662.318216	-2.333702e-08
3.400000	4937889.480789	-1.342034e-08
3.405000	4946115.423032	-2.054666e-08
3.410000	4954340.137940	-2.142485e-08
3.415000	4962563.645011	-1.814260e-08
3.420000	4970785.951276	-2.259428e-08
3.425000	4979007.012664	-1.713072e-08
3.430000	4987226.886864	-2.912031e-08
3.435000	4995445.570113	-2.409055e-08
3.440000	5003663.019398	-1.751857e-08
3.445000	5011879.304862	-1.763725e-08
3.450000	5020094.321564	-2.468837e-08
3.455000	5028308.128018	-2.144199e-08
3.460000	5036520.759943	-2.494893e-08
3.465000	5044732.185455	-2.570998e-08
3.470000	5052942.396429	-1.803858e-08
3.475000	5061151.416471	-2.106232e-08
3.480000	5069359.235808	-1.817084e-08
3.485000	5077565.880272	-2.010827e-08
3.490000	5085771.310382	-1.977106e-08
3.495000	5093975.575232	-1.836684e-08
3.500000	5102178.637348	-1.650651e-08
3.505000	5110380.522637	-2.842553e-08
3.510000	5118581.273827	-2.204778e-08
3.515000	5126780.919453	-1.703720e-08
3.520000	5134979.369141	-2.978733e-08
3.525000	5143176.663004	-1.390663e-08
3.530000	5151372.826652	-2.767795e-08
3.535000	5159567.827031	-2.060771e-08
3.540000	5167761.677476	-1.802397e-08
3.545000	5175954.402916	-1.766872e-08
3.550000	5184145.968696	-1.870079e-08
3.555000	5192336.390038	-2.162294e-08
3.560000	5200525.643542	-2.002047e-08
3.565000	5208713.786374	-1.367305e-08
3.570000	5216900.785924	-1.542985e-08
3.575000	5225086.666402	-1.982922e-08
3.580000	5233271.500038	-2.277933e-08
3.585000	5241455.229073	-1.632967e-08
3.590000	5249637.949764	-1.838779e-08
3.595000	5257819.623374	-1.666527e-08
3.600000	5266000.253762	-2.179503e-08
3.605000	5274179.853585	-9.888110e-09
3.610000	5282358.460020	-1.870381e-08
3.615000	5290536.085832	-1.462758e-08
3.620000	5298712.690678	-2.124368e-08
3.625000	5306888.282227	-1.209965e-08
3.630000	5315062.899799	-2.053817e-08
3.635000	5323236.530828	-1.403872e-08
3.640000	5331409.131166	-1.669082e-08
3.645000	5339580.800501	-1.800135e-08
3.650000	5347751.454416	-1.165153e-08
3.655000	5355921.219279	-1.125145e-08
3.660000	5364090.032746	-1.260754e-08
3.665000	5372257.967020	-2.554010e-08
3.670000	5380424.984182	-6.931362e-09
3.675000	5388591.157533	-1.848915e-08
3.680000	5396756.441891	-2.041590e-08
3.685000	5404920.868782	-1.832472e-08
3.690000	5413084.438198	-1.598748e-08
3.695000	5421247.165386	-1.512771e-08
3.700000	5429409.062815	-1.483103e-08
3.705000	5437570.164876	-1.500687e-08
3.710000	5445730.432484	-1.293304e-08
3.715000	5453889.916254	-1.794312e-08
3.720000	5462048.620657	-1.308311e-08
3.725000	5470206.546369	-1.953603e-08
3.730000	5478363.699464	-2.864593e-09
3.735000	5486520.122907	-1.705086e-08
3.740000	5494675.806746	-7.600053e-09
3.745000	5502830.720924	-1.031561e-08
3.750000	5510984.895015	-1.146648e-08
3.755000	5519138.340583	-1.015617e-08
3.760000	5527291.075743	-1.033981e-08
3.765000	5535443.106294	-1.310946e-10
3.770000	5543594.470266	-7.976871e-09
3.775000	5551745.143182	-1.161035e-08
3.780000	5559895.194664	-3.980769e-10
3.785000	5568044.620342	-1.391125e-08
3.790000	5576193.426899	-3.965211e-09
3.795000	5584341.682536	-1.487572e-08
3.800000	5592489.371656	-1.135930e-08
3.805000	5600636.500352	-1.105483e-08
3.810000	5608783.093083	-4.688768e-09
3.815000	5616929.187299	-1.053748e-08
3.820000	5625074.764943	-5.260926e-09
3.825000	5633219.863275	-6.955192e-09
3.830000	5641364.542688	-2.525520e-09
3.835000	5649508.747279	-5.291632e-09
3.840000	5657652.463769	-5.562663e-09
3.845000	5665795.782779	-7.417826e-09
3.850000	5673938.685551	-9.376835e-09
3.855000	5682081.154039	-8.271176e-09
3.860000	5690223.174205	-2.032513e-09
3.865000	5698364.850400	-2.422735e-09
3.870000	5706506.094943	-4.423554e-09
3.875000	5714646.986682	1.094049e-09
3.880000	5722787.525474	-4.752681e-09
3.885000	5730927.762463	-1.119497e-08
3.890000	5739067.621435	-4.734912e-09
3.895000	5747207.189852	-5.920651e-09
3.900000	5755346.460836	-9.469260e-09
3.905000	5763485.434455	-2.675812e-09
3.910000	5771624.121438	-1.333900e-08
3.915000	5779762.586937	-3.430273e-09
3.920000	5787900.785427	-7.575386e-09
3.925000	5796038.756454	5.072050e-09
3.930000	5804176.538700	-1.433948e-09
3.935000	5812314.166643	-5.215200e-09
3.940000	5820451.635470	-5.747638e-09
3.945000	5828588.964911	-1.755446e-09
3.950000	5836726.196062	-3.751716e-09
3.955000	5844863.300699	-6.151843e-09
3.960000	5853000.263292	-8.536091e-10
3.965000	5861137.154424	-6.575126e-09
3.970000	5869273.934678	-5.388706e-09
3.975000	5877410.628567	-5.644983e-09
3.980000	5885547.238303	9.701074e-10
3.985000	5893683.813884	3.003122e-09
3.990000	5901820.388065	-2.324721e-09
3.995000	5909956.924793	4.341020e-09
4.000000	5918093.557111	-2.828367e-09
4.005000	5926230.222894	-2.783203e-09
4.010000	5934366.973246	1.048852e-09
4.015000	5942503.813123	-3.482966e-10
4.020000	5950640.730476	5.111222e-09
4.025000	5958777.771705	-9.157666e-09
4.030000	5966914.949274	-5.598014e-09
4.035000	5975052.343766	-4.452583e-09
4.040000	5983189.892737	-1.427333e-09
4.045000	5991327.651920	-4.324944e-09
4.050000	5999465.638080	-1.596129e-09