0.000000	0.000000	6.118919e-06
0.005000	61.075184	1.965001e-06
0.010000	227.039973	2.207331e-06
0.015000	502.638737	2.152015e-06
0.020000	886.206052	2.127422e-06
0.025000	1376.169332	2.095166e-06
0.030000	1971.158094	2.067151e-06
0.035000	2669.879557	2.040070e-06
0.040000	3471.004434	2.015964e-06
0.045000	4373.287416	1.998741e-06
0.050000	5375.399530	1.967069e-06
0.055000	6476.156314	1.942597e-06
0.060000	7674.233877	1.919482e-06
0.065000	8968.471062	1.889555e-06
0.070000	10357.584816	1.869784e-06
0.075000	11840.380610	1.838770e-06
0.080000	13415.680518	1.821338e-06
0.085000	15082.290315	1.800185e-06
0.090000	16839.038974	1.773940e-06
0.095000	18684.737762	1.746208e-06
0.100000	20618.276649	1.729551e-06
0.105000	22638.514960	1.705658e-06
0.110000	24744.316315	1.682527e-06
0.115000	26934.590048	1.662828e-06
0.120000	29208.201568	1.636641e-06
0.125000	31564.120397	1.621615e-06
0.130000	34001.235916	1.597854e-06
0.135000	36518.551959	1.577197e-06
0.140000	39114.966502	1.560060e-06
0.145000	41789.474980	1.542326e-06
0.150000	44541.072882	1.513624e-06
0.155000	47368.746255	1.499194e-06
0.160000	50271.501195	1.471848e-06
0.165000	53248.386697	1.462593e-06
0.170000	56298.422901	1.435623e-06
0.175000	59420.643961	1.423382e-06
0.180000	62614.122006	1.399539e-06
0.185000	65877.914669	1.380454e-06
0.190000	69211.093001	1.366590e-06
0.195000	72612.750941	1.351987e-06
0.200000	76081.991885	1.327842e-06
0.205000	79617.925392	1.313593e-06
0.210000	83219.698526	1.297659e-06
0.215000	86886.413794	1.280707e-06
0.220000	90617.256604	1.262237e-06
0.225000	94411.378539	1.247131e-06
0.230000	98267.937655	1.231289e-06
0.235000	102186.111240	1.210114e-06
0.240000	106165.104874	1.198226e-06
0.245000	110204.111186	1.182210e-06
0.250000	114302.314774	1.164859e-06
0.255000	118458.959522	1.146200e-06
0.260000	122673.239869	1.130667e-06
0.265000	126944.420441	1.122054e-06
0.270000	131271.736352	1.094620e-06
0.275000	135654.428416	1.085801e-06
0.280000	140091.753115	1.077715e-06
0.285000	144582.995936	1.058814e-06
0.290000	149127.427904	1.043443e-06
0.295000	153724.354412	1.027379e-06
0.300000	158373.093567	1.017481e-06
0.305000	163072.941945	1.002572e-06
0.310000	167823.220063	9.914515e-07
0.315000	172623.279355	9.747960e-07
0.320000	177472.424408	9.652481e-07
0.325000	182370.050875	9.545359e-07
0.330000	187315.474716	9.368842e-07
0.335000	192308.061442	9.252621e-07
0.340000	197347.184339	9.127545e-07
0.345000	202432.207793	9.024486e-07
0.350000	207562.508922	8.883680e-07
0.355000	212737.521260	8.802383e-07
0.360000	217956.605553	8.650457e-07
0.365000	223219.192109	8.527766e-07
0.370000	228524.689641	8.431938e-07
0.375000	233872.527123	8.345071e-07
0.380000	239262.100138	8.205086e-07
0.385000	244692.886441	8.105563e-07
0.390000	250164.289572	7.973303e-07
0.395000	255675.785022	7.874838e-07
0.400000	261226.816779	7.753161e-07
0.405000	266816.865991	7.642716e-07
0.410000	272445.385932	7.581081e-07
0.415000	278111.879339	7.425408e-07
0.420000	283815.816360	7.368471e-07
0.425000	289556.719761	7.252722e-07
0.430000	295334.091690	7.157247e-07
0.435000	301147.406525	7.036734e-07
0.440000	306996.225557	6.985123e-07
0.445000	312880.050719	6.939549e-07
0.450000	318798.449525	6.816800e-07
0.455000	324750.956293	6.702122e-07
0.460000	330737.125852	6.650170e-07
0.465000	336756.515816	6.545393e-07
0.470000	342808.648319	6.422666e-07
0.475000	348893.144754	6.325018e-07
0.480000	355009.531085	6.313974e-07
0.485000	361157.369505	6.140514e-07
0.490000	367336.272482	6.014272e-07
0.495000	373545.782689	5.993677e-07
0.500000	379785.491227	5.908347e-07
0.505000	386055.023598	5.881250e-07
0.510000	392353.943058	5.778513e-07
0.515000	398681.882199	5.692695e-07
0.520000	405038.424069	5.597693e-07
0.525000	411423.223061	5.521261e-07
0.530000	417835.879184	5.426043e-07
0.535000	424276.046288	5.422363e-07
0.540000	430743.322299	5.362814e-07
0.545000	437237.379743	5.259793e-07
0.550000	443757.851991	5.189956e-07
0.555000	450304.402244	5.133063e-07
0.560000	456876.654295	5.055341e-07
0.565000	463474.310484	5.013106e-07
0.570000	470097.000781	4.901787e-07
0.575000	476744.408712	4.842737e-07
0.580000	483416.221753	4.814766e-07
0.585000	490112.116755	4.833781e-07
0.590000	496831.733087	4.645790e-07
0.595000	503574.789558	4.574030e-07
0.600000	510340.979110	4.521793e-07
0.605000	517129.974278	4.533733e-07
0.610000	523941.458728	4.388612e-07
0.615000	530775.155524	4.370796e-07
0.620000	537630.747366	4.259994e-07
0.625000	544507.931981	4.252523e-07
0.630000	551406.432373	4.147562e-07
0.635000	558325.933905	4.167612e-07
0.640000	565266.170628	4.142571e-07
0.645000	572226.859138	3.965232e-07
0.650000	579207.705653	3.961688e-07
0.655000	586208.445089	3.830571e-07
0.660000	593228.785597	3.796643e-07
0.665000	600268.483514	3.851067e-07
0.670000	607327.262445	3.708433e-07
0.675000	614404.871335	3.714802e-07
0.680000	621501.075117	3.673178e-07
0.685000	628615.609019	3.653612e-07
0.690000	635748.244623	3.572906e-07
0.695000	642898.729816	3.562487e-07
0.700000	650066.827102	3.503298e-07
0.705000	657252.294467	3.408008e-07
0.710000	664454.907761	3.336518e-07
0.715000	671674.446845	3.327692e-07
0.720000	678910.642961	3.270482e-07
0.725000	686163.311345	3.189462e-07
0.730000	693432.178637	3.174353e-07
0.735000	700717.041274	3.187536e-07
0.740000	708017.684228	3.124066e-07
0.745000	715333.871980	3.081222e-07
0.750000	722665.396965	3.016519e-07
0.755000	730012.057347	2.985091e-07
0.760000	737373.642099	2.947381e-07
0.765000	744749.933635	2.837324e-07
0.770000	752140.739289	2.771423e-07
0.775000	759545.844712	2.820574e-07
0.780000	766965.059151	2.749704e-07
0.785000	774398.198650	2.832318e-07
0.790000	781845.077947	2.696622e-07
0.795000	789305.525940	2.691000e-07
0.800000	796779.376501	2.604182e-07
0.805000	804266.434506	2.570460e-07
0.810000	811766.552996	2.567543e-07
0.815000	819279.583105	2.537083e-07
0.820000	826805.351510	2.471128e-07
0.825000	834343.706076	2.454780e-07
0.830000	841894.504663	2.464639e-07
0.835000	849457.614440	2.415607e-07
0.840000	857032.870516	2.404858e-07
0.845000	864620.111219	2.407561e-07
0.850000	872219.206615	2.266541e-07
0.855000	879830.030815	2.315962e-07
0.860000	887452.398454	2.200721e-07
0.865000	895086.198521	2.229855e-07
0.870000	902731.278993	2.167750e-07
0.875000	910387.528021	2.162322e-07
0.880000	918054.802209	2.079230e-07
0.885000	925732.994175	2.149065e-07
0.890000	933421.958616	2.046764e-07
0.895000	941121.573869	2.120073e-07
0.900000	948831.703907	2.086114e-07
0.905000	956552.224787	1.996165e-07
0.910000	964283.038567	1.984243e-07
0.915000	972024.003244	1.937777e-07
0.920000	979775.025121	1.977528e-07
0.925000	987535.970114	1.919590e-07
0.930000	995306.730658	1.961377e-07
0.935000	1003087.211183	1.931331e-07
0.940000	1010877.306885	1.897637e-07
0.945000	1018676.870958	1.845498e-07
0.950000	1026485.855220	1.756358e-07
0.955000	1034304.114908	1.813855e-07
0.960000	1042131.556388	1.774775e-07
0.965000	1049968.044722	1.733118e-07
0.970000	1057813.489948	1.764674e-07
0.975000	1065667.806606	1.706634e-07
0.980000	1073530.898806	1.715714e-07
0.985000	1081402.647869	1.655014e-07
0.990000	1089282.979772	1.580191e-07
0.995000	1097171.770777	1.628045e-07
1.000000	1105068.901773	1.608819e-07
1.005000	1112974.278319	1.594043e-07
1.010000	1120887.818670	1.586472e-07
1.015000	1128809.436290	1.516002e-07
1.020000	1136739.011655	1.480099e-07
1.025000	1144676.419578	1.445607e-07
1.030000	1152621.628798	1.454333e-07
1.035000	1160574.485436	1.448124e-07
1.040000	1168534.915142	1.395087e-07
1.045000	1176502.820756	1.436845e-07
1.050000	1184478.119352	1.419837e-07
1.055000	1192460.727002	1.360154e-07
1.060000	1200450.531313	1.396995e-07
1.065000	1208447.440099	1.324776e-07
1.070000	1216451.409291	1.241548e-07
1.075000	1224462.324984	1.253195e-07
1.080000	1232480.085726	1.307183e-07
1.085000	1240504.606267	1.209751e-07
1.090000	1248535.762810	1.317307e-07
1.095000	1256573.547384	1.229000e-07
1.100000	1264617.842684	1.207607e-07
1.105000	1272668.568176	1.240492e-07
1.110000	1280725.664133	1.177017e-07
1.115000	1288789.030203	1.211960e-07
1.120000	1296858.615024	1.171102e-07
1.125000	1304934.337471	1.128890e-07
1.130000	1313016.107722	1.139633e-07
1.135000	1321103.865309	1.134106e-07
1.140000	1329197.543091	1.163814e-07
1.145000	1337297.056600	1.077990e-07
1.150000	1345402.331338	1.107096e-07
1.155000	1353513.322654	1.124951e-07
1.160000	1361629.921477	1.082739e-07
1.165000	1369752.053771	1.074285e-07
1.170000	1377879.661563	1.100010e-07
1.175000	1386012.658601	1.135281e-07
1.180000	1394150.987946	1.041184e-07
1.185000	1402294.560446	1.021896e-07
1.190000	1410443.279693	1.012715e-07
1.195000	1418597.089479	9.666483e-08
1.200000	1426755.943893	9.926136e-08
1.205000	1434919.736309	9.545480e-08
1.210000	1443088.445135	9.697324e-08
1.215000	1451261.949811	9.480503e-08
1.220000	1459440.237271	9.135365e-08
1.225000	1467623.229452	9.344493e-08
1.230000	1475810.850836	9.226103e-08
1.235000	1484003.066145	9.002107e-08
1.240000	1492199.810662	9.018529e-08
1.245000	1500400.967172	8.600697e-08
1.250000	1508606.522452	9.080589e-08
1.255000	1516816.397483	8.476224e-08
1.260000	1525030.552759	8.422127e-08
1.265000	1533248.904093	7.845218e-08
1.270000	1541471.419162	8.187734e-08
1.275000	1549698.012107	8.423194e-08
1.280000	1557928.639863	8.062768e-08
1.285000	1566163.232821	7.902244e-08
1.290000	1574401.750571	7.778384e-08
1.295000	1582644.066799	6.710051e-08
1.300000	1590890.218954	7.864693e-08
1.305000	1599140.094456	7.440078e-08
1.310000	1607393.605624	7.053141e-08
1.315000	1615650.769647	7.491045e-08
1.320000	1623911.476058	7.164582e-08
1.325000	1632175.683676	7.097869e-08
1.330000	1640443.301566	6.588732e-08
1.335000	1648714.310651	6.855788e-08
1.340000	1656988.621817	6.535113e-08
1.345000	1665266.186900	7.158976e-08
1.350000	1673546.959973	6.197575e-08
1.355000	1681830.883577	6.379222e-08
1.360000	1690117.911874	5.767394e-08
1.365000	1698407.939190	6.553842e-08
1.370000	1706700.956182	5.908768e-08
1.375000	1714996.873492	6.001883e-08
1.380000	1723295.626046	5.659212e-08
1.385000	1731597.176217	5.582281e-08
1.390000	1739901.451036	6.149646e-08
1.395000	1748208.394595	5.599041e-08
1.400000	1756517.971440	4.659785e-08
1.405000	1764830.093943	5.238115e-08
1.410000	1773144.748653	5.368715e-08
1.415000	1781461.825449	4.981411e-08
1.420000	1789781.336945	5.355942e-08
1.425000	1798103.184219	4.330144e-08
1.430000	1806427.294169	5.128857e-08
1.435000	1814753.640583	4.952729e-08
1.440000	1823082.199571	4.346239e-08
1.445000	1831412.915388	4.251830e-08
1.450000	1839745.727690	4.824041e-08
1.455000	1848080.557456	4.528641e-08
1.460000	1856417.384622	3.621750e-08
1.465000	1864756.126369	4.170460e-08
1.470000	1873096.765480	3.920153e-08
1.475000	1881439.237390	4.818915e-08
1.480000	1889783.502166	3.749497e-08
1.485000	1898129.467839	3.203532e-08
1.490000	1906477.162394	3.973160e-08
1.495000	1914826.512129	3.828463e-08
1.500000	1923177.450413	3.887589e-08
1.505000	1931529.963877	3.105466e-08
1.510000	1939884.014573	3.293463e-08
1.515000	1948239.530170	3.444625e-08
1.520000	1956596.491997	3.040104e-08
1.525000	1964954.841105	2.760115e-08
1.530000	1973314.540358	3.422904e-08
1.535000	1981675.550856	3.134754e-08
1.540000	1990037.849554	2.468826e-08
1.545000	1998401.352629	2.686760e-08
1.550000	2006766.044677	2.919015e-08
1.555000	2015131.860036	2.628596e-08
1.560000	2023498.784913	2.822731e-08
1.565000	2031866.724496	2.606180e-08
1.570000	2040235.693980	2.334180e-08
1.575000	2048605.617074	2.217109e-08
1.580000	2056976.487356	2.579714e-08
1.585000	2065348.270773	1.929470e-08
1.590000	2073720.922798	2.445615e-08
1.595000	2082094.428588	2.189820e-08
1.600000	2090468.770629	2.133919e-08
1.605000	2098843.915264	2.164910e-08
1.610000	2107219.821983	1.980075e-08
1.615000	2115596.481947	1.899563e-08
1.620000	2123973.833741	1.183117e-08
1.625000	2132351.855649	1.533234e-08
1.630000	2140730.559084	1.050774e-08
1.635000	2149109.868620	1.608811e-08
1.640000	2157489.770112	1.311191e-08
1.645000	2165870.238501	1.093458e-08
1.650000	2174251.253435	2.135474e-08
1.655000	2182632.755861	1.634841e-08
1.660000	2191014.744468	6.517625e-09
1.665000	2199397.194715	1.054943e-08
1.670000	2207780.077198	1.017871e-08
1.675000	2216163.352578	1.252011e-08
1.680000	2224547.018309	8.593157e-09
1.685000	2232931.058454	4.780120e-09
1.690000	2241315.416480	3.027113e-09
1.695000	2249700.082804	7.106268e-09
1.700000	2258085.044273	3.128464e-09
1.705000	2266470.258275	5.723447e-09
1.710000	2274855.694207	2.280122e-09
1.715000	2283241.359678	1.003162e-09
1.720000	2291627.233902	2.793955e-09
1.725000	2300013.276969	-4.902163e-09
1.730000	2308399.488065	-8.089884e-10
1.735000	2316785.834933	-1.231553e-10
1.740000	2325172.330011	6.350756e-09
1.745000	2333558.927120	2.129557e-09
1.750000	2341945.618667	2.026206e-09
1.755000	2350332.403937	3.115999e-09
1.760000	2358719.275584	2.758597e-09
1.765000	2367106.198568	-1.568240e-09
1.770000	2375493.172311	1.380240e-09
1.775000	2383880.147772	-1.485644e-09
1.780000	2392267.105416	-4.152949e-09
1.785000	2400654.054108	-9.983704e-10
1.790000	2409040.981762	-2.085210e-09
1.795000	2417427.866463	3.366985e-10
1.800000	2425814.701662	6.694038e-10
1.805000	2434201.462824	-5.614269e-09
1.810000	2442588.145957	1.254843e-09
1.815000	2450974.742877	-6.075632e-09
1.820000	2459361.243053	-4.045103e-09
1.825000	2467747.650679	-3.496879e-09
1.830000	2476133.862130	-2.760199e-09
1.835000	2484519.944850	-9.295785e-09
1.840000	2492905.822532	-6.525355e-09
1.845000	2501291.490946	-1.416942e-09
1.850000	2509676.968184	-8.863232e-09
1.855000	2518062.191700	-5.319277e-09
1.860000	2526447.182291	-5.673241e-09
1.865000	2534831.917364	-1.197301e-08
1.870000	2543216.337958	-1.262345e-08
1.875000	2551600.489385	-7.325918e-09
1.880000	2559984.329713	-5.121991e-09
1.885000	2568367.845686	-4.500189e-09
1.890000	2576751.032405	-1.039154e-08
1.895000	2585133.872691	-1.343772e-08
1.900000	2593516.342817	-3.743709e-09
1.905000	2601898.453853	-9.946409e-09
1.910000	2610280.177252	-2.335743e-09
1.915000	2618661.521102	-6.908468e-09
1.920000	2627042.455500	-1.212599e-08
1.925000	2635422.958148	-1.064816e-08
1.930000	2643803.057418	-7.794283e-09
1.935000	2652182.711299	-7.144262e-09
1.940000	2660561.924579	-6.286947e-09
1.945000	2668940.694066	-5.640448e-09
1.950000	2677318.989057	-9.113060e-09
1.955000	2685696.833579	-4.514875e-09
1.960000	2694074.195023	-1.186594e-08
1.965000	2702451.067181	-1.138904e-08
1.970000	2710827.449639	-5.519616e-09
1.975000	2719203.300773	-1.005779e-08
1.980000	2727578.627241	-1.482906e-08
1.985000	2735953.413081	-1.265634e-08
1.990000	2744327.659164	-8.615759e-09
1.995000	2752701.369589	-1.148315e-08
2.000000	2761074.527700	-1.530704e-08
2.005000	2769447.077352	-1.095631e-08
2.010000	2777819.043899	-8.819142e-09
2.015000	2786190.400379	-1.464649e-08
2.020000	2794561.152049	-1.218622e-08
2.025000	2802931.273604	-1.826377e-08
2.030000	2811300.779920	-1.017559e-08
2.035000	2819669.649261	-2.060823e-08
2.040000	2828037.887919	-1.079081e-08
2.045000	2836405.483909	-1.537624e-08
2.050000	2844772.447642	-1.546657e-08
2.055000	2853138.731137	-1.064086e-08
2.060000	2861504.356750	-2.017062e-08
2.065000	2869869.319932	-1.209849e-08
2.070000	2878233.596271	-1.567319e-08
2.075000	2886597.212455	-1.337540e-08
2.080000	2894960.114294	-1.804037e-08
2.085000	2903322.309438	-1.541450e-08
2.090000	2911683.747244	-1.760539e-08
2.095000	2920044.443148	-1.414456e-08
2.100000	2928404.377505	-1.734050e-08
2.105000	2936763.530723	-1.779067e-08
2.110000	2945121.891521	-1.859754e-08
2.115000	2953479.437737	-1.768451e-08
2.120000	2961836.195329	-1.470743e-08
2.125000	2970192.117907	-2.061269e-08
2.130000	2978547.227920	-1.563004e-08
2.135000	2986901.510076	-1.614498e-08
2.140000	2995254.917956	-1.428215e-08
2.145000	3003607.494617	-1.159162e-08
2.150000	3011959.222925	-1.910209e-08
2.155000	3020310.077806	-1.619037e-08
2.160000	3028660.027877	-1.018012e-08
2.165000	3037009.115604	-1.975857e-08
2.170000	3045357.337106	-1.543560e-08
2.175000	3053704.696187	-2.369490e-08
2.180000	3062051.181568	-1.249403e-08
2.185000	3070396.783458	-2.313488e-08
2.190000	3078741.494724	-2.332237e-08
2.195000	3087085.319973	-2.010973e-08
2.200000	3095428.268902	-2.442659e-08
2.205000	3103770.317694	-2.307806e-08
2.210000	3112111.461811	-2.616517e-08
2.215000	3120451.690617	-2.119806e-08
2.220000	3128791.030288	-2.073942e-08
2.225000	3137129.446199	-2.806618e-08
2.230000	3145466.940533	-2.022334e-08
2.235000	3153803.517463	-2.066632e-08
2.240000	3162139.145917	-1.936808e-08
2.245000	3170473.769859	-2.879465e-08
2.250000	3178807.419393	-1.957936e-08
2.255000	3187140.055439	-1.891206e-08
2.260000	3195471.698692	-2.595072e-08
2.265000	3203802.316643	-2.275033e-08
2.270000	3212131.875549	-2.536332e-08
2.275000	3220460.424753	-2.602853e-08
2.280000	3228787.883741	-1.972178e-08
2.285000	3237114.276055	-2.956211e-08
2.290000	3245439.574071	-3.248683e-08
2.295000	3253763.716510	-2.357826e-08
2.300000	3262086.728317	-3.772515e-08
2.305000	3270408.595909	-2.707018e-08
2.310000	3278729.299110	-2.911075e-08
2.315000	3287048.836782	-2.823293e-08
2.320000	3295367.215516	-2.637199e-08
2.325000	3303684.446142	-2.579226e-08
2.330000	3312000.478920	-2.702643e-08
2.335000	3320315.312233	-2.989681e-08
2.340000	3328628.921215	-2.336570e-08
2.345000	3336941.299085	-2.474045e-08
2.350000	3345252.473578	-2.682756e-08
2.355000	3353562.408345	-2.946206e-08
2.360000	3361871.113878	-2.765530e-08
2.365000	3370178.571789	-3.075056e-08
2.370000	3378484.769013	-2.412368e-08
2.375000	3386789.738549	-3.073964e-08
2.380000	3395093.432316	-2.343345e-08
2.385000	3403395.863054	-2.845644e-08
2.390000	3411697.069571	-3.111282e-08
2.395000	3419996.987747	-3.279838e-08
2.400000	3428295.629091	-2.467823e-08
2.405000	3436593.013563	-2.654913e-08
2.410000	3444889.102143	-3.325174e-08
2.415000	3453183.904246	-2.743101e-08
2.420000	3461477.397726	-4.015598e-08
2.425000	3469769.555562	-3.029175e-08
2.430000	3478060.383906	-2.538466e-08
2.435000	3486349.859593	-2.785668e-08
2.440000	3494637.969888	-2.654467e-08
2.445000	3502924.718662	-3.018036e-08
2.450000	3511210.064801	-2.673671e-08
2.455000	3519494.011651	-2.493573e-08
2.460000	3527776.550891	-2.417614e-08
2.465000	3536057.643984	-3.035989e-08
2.470000	3544337.302146	-3.041683e-08
2.475000	3552615.525760	-2.437184e-08
2.480000	3560892.282661	-3.140250e-08
2.485000	3569167.597216	-2.677996e-08
2.490000	3577441.431084	-2.927362e-08
2.495000	3585713.818705	-2.746906e-08
2.500000	3593984.750921	-2.838446e-08
2.505000	3602254.220278	-2.571129e-08
2.510000	3610522.264613	-3.220780e-08
2.515000	3618788.904132	-3.074844e-08
2.520000	3627054.077916	-3.862012e-08
2.525000	3635317.815377	-2.762103e-08
2.530000	3643580.129193	-3.840553e-08
2.535000	3651840.999682	-2.818308e-08
2.540000	3660100.434670	-2.812304e-08
2.545000	3668358.427201	-3.642688e-08
2.550000	3676614.975583	-2.478942e-08
2.555000	3684870.112087	-2.755468e-08
2.560000	3693123.811243	-3.332699e-08
2.565000	3701376.109986	-3.831433e-08
2.570000	3709626.976332	-3.327058e-08
2.575000	3717876.435467	-2.832442e-08
2.580000	3726124.478462	-3.338430e-08
2.585000	3734371.117596	-3.204660e-08
2.590000	3742616.345999	-2.526547e-08
2.595000	3750860.196091	-3.277141e-08
2.600000	3759102.613148	-3.150514e-08
2.605000	3767343.645254	-3.562188e-08
2.610000	3775583.238534	-3.284990e-08
2.615000	3783821.456407	-3.231674e-08
2.620000	3792058.249205	-2.859569e-08
2.625000	3800293.621653	-3.064853e-08
2.630000	3808527.570714	-3.289173e-08
2.635000	3816760.089953	-2.646633e-08
2.640000	3824991.155139	-3.189453e-08
2.645000	3833220.750290	-2.453570e-08
2.650000	3841448.908047	-3.309866e-08
2.655000	3849675.579613	-3.731890e-08
2.660000	3857900.807832	-3.196516e-08
2.665000	3866124.538514	-3.911516e-08
2.670000	3874346.799999	-2.741233e-08
2.675000	3882567.589246	-3.398362e-08
2.680000	3890786.942568	-3.214695e-08
2.685000	3899004.817296	-2.866421e-08
2.690000	3907221.244378	-3.226424e-08
2.695000	3915436.220513	-3.326390e-08
2.700000	3923649.741741	-2.961057e-08
2.705000	3931861.812816	-3.252548e-08
2.710000	3940072.450789	-3.383705e-08
2.715000	3948281.643443	-3.230854e-08
2.720000	3956489.443253	-3.321502e-08
2.725000	3964695.785504	-3.313973e-08
2.730000	3972900.735930	-3.251234e-08
2.735000	3981104.283378	-3.536514e-08
2.740000	3989306.513469	-1.938796e-08
2.745000	3997507.403115	-3.693680e-08
2.750000	4005706.997643	-2.804471e-08
2.755000	4013905.281156	-3.204069e-08
2.760000	4022102.282878	-3.210179e-08
2.765000	4030298.025232	-3.032707e-08
2.770000	4038492.531683	-2.659046e-08
2.775000	4046685.829175	-2.945598e-08
2.780000	4054877.916842	-3.117430e-08
2.785000	4063068.825325	-3.087129e-08
2.790000	4071258.568916	-2.614808e-08
2.795000	4079447.163066	-2.443713e-08
2.800000	4087634.636551	-3.833190e-08
2.805000	4095820.991313	-2.923871e-08
2.810000	4104006.234088	-2.617515e-08
2.815000	4112190.379783	-2.165313e-08
2.820000	4120373.389271	-2.255526e-08
2.825000	4128555.357580	-2.974993e-08
2.830000	4136736.234331	-2.407075e-08
2.835000	4144916.033575	-2.493887e-08
2.840000	4153094.780383	-2.402682e-08
2.845000	4161272.482128	-2.356412e-08
2.850000	4169449.178968	-1.809649e-08
2.855000	4177624.847465	-2.322107e-08
2.860000	4185799.524734	-2.012240e-08
2.865000	4193973.218422	-2.252142e-08
2.870000	4202145.965598	-2.127902e-08
2.875000	4210317.789607	-2.462303e-08
2.880000	4218488.671179	-2.412876e-08
2.885000	4226658.655050	-2.435679e-08
2.890000	4234827.735385	-2.816346e-08
2.895000	4242995.965054	-2.411183e-08
2.900000	4251163.371457	-2.721620e-08
2.905000	4259329.964718	-2.290619e-08
2.910000	4267495.771512	-2.874267e-08
2.915000	4275660.828865	-2.072310e-08
2.920000	4283825.129168	-2.664648e-08
2.925000	4291988.766263	-2.239625e-08
2.930000	4300151.711099	-2.679233e-08
2.935000	4308314.031883	-2.551962e-08
2.940000	4316475.741134	-2.283649e-08
2.945000	4324636.830018	-2.300307e-08
2.950000	4332797.357299	-2.177270e-08
2.955000	4340957.287007	-1.630500e-08
2.960000	4349116.683983	-2.273837e-08
2.965000	4357275.568679	-1.975422e-08
2.970000	4365433.936830	-1.477252e-08
2.975000	4373591.826471	-1.802315e-08
2.980000	4381749.233262	-1.632958e-08
2.985000	4389906.181543	-1.628389e-08
2.990000	4398062.697794	-1.765255e-08
2.995000	4406218.790191	-1.383544e-08
3.000000	4414374.456114	-1.394945e-08
3.005000	4422529.709764	-1.684748e-08
3.010000	4430684.558095	-1.146933e-08
3.015000	4438839.055372	-1.645765e-08
3.020000	4446993.146162	-1.324597e-08
3.025000	4455146.903683	-1.506503e-08
3.030000	4463300.280876	-1.134277e-08
3.035000	4471453.342368	-9.884965e-09
3.040000	4479606.095008	-1.112342e-08
3.045000	4487758.512411	-9.287068e-09
3.050000	4495910.616737	-1.177105e-08
3.055000	4504062.433276	-1.308233e-08
3.060000	4512213.920962	-1.042699e-08
3.065000	4520365.134453	-1.109719e-08
3.070000	4528516.050779	-1.076717e-08
3.075000	4536666.678559	-1.151009e-08
3.080000	4544817.021619	-1.373543e-08
3.085000	4552967.095267	-9.936598e-09
3.090000	4561116.917335	-1.247737e-08
3.095000	4569266.419844	-1.293884e-08
3.100000	4577415.659017	-1.127717e-08
3.105000	4585564.646434	-5.502249e-09
3.110000	4593713.352012	-1.127175e-08
3.115000	4601861.768664	-6.104924e-09
3.120000	4610009.919076	-1.467127e-08
3.125000	4618157.854037	-7.071928e-09
3.130000	4626305.505192	-1.504203e-08
3.135000	4634452.980088	-7.666088e-09
3.140000	4642600.239234	-1.316738e-08
3.145000	4650747.299813	-6.467000e-09
3.150000	4658894.226081	-4.106228e-09
3.155000	4667040.951662	-6.713254e-09
3.160000	4675187.517690	-4.767971e-09
3.165000	4683333.937076	1.400743e-09
3.170000	4691480.211369	-1.299206e-08
3.175000	4699626.330732	-4.642090e-09
3.180000	4707772.298019	-6.132668e-09
3.185000	4715918.065024	-6.126630e-09
3.190000	4724063.669313	-7.329583e-09
3.195000	4732209.162224	-1.225668e-08
3.200000	4740354.438210	-4.871959e-09
3.205000	4748499.617186	-1.036557e-08
3.210000	4756644.639357	-6.485058e-09
3.215000	4764789.506447	-1.235588e-08
3.220000	4772934.271519	-2.475567e-09
3.225000	4781078.901510	-5.710535e-10
3.230000	4789223.415658	-4.279466e-09
3.235000	4797367.811835	-2.407827e-09
3.240000	4805512.135856	-5.002268e-09
3.245000	4813656.383156	3.158754e-09
3.250000	4821800.569859	-6.464886e-09
3.255000	4829944.710070	-1.877004e-09
3.260000	4838088.790607	-3.429764e-09
3.265000	4846232.804022	-9.154011e-09
3.270000	4854376.786395	-7.494199e-09
3.275000	4862520.728815	-3.357929e-09
3.280000	4870664.616421	-7.658544e-09
3.285000	4878808.488847	-2.486355e-09
3.290000	4886952.308384	-3.186572e-09
3.295000	4895096.120955	1.902596e-09
3.300000	4903239.907201	-3.492408e-09
3.305000	4911383.700623	-6.812694e-09
3.310000	4919527.468692	-4.993716e-09
3.315000	4927671.239960	-5.173649e-09
3.320000	4935815.011172	-9.293809e-09
3.325000	4943958.830163	-9.767759e-09
3.330000	4952102.639082	-9.414449e-09
3.335000	4960246.482250	-7.995848e-09
3.340000	4968390.318264	-5.108712e-09
3.345000	4976534.169860	-7.960214e-09
3.350000	4984678.028642	-5.708914e-09
3.355000	4992821.862337	-8.355933e-09
3.360000	5000965.720814	-1.011003e-08
3.365000	5009109.562952	-8.250746e-09
3.370000	5017253.397792	-6.573451e-09
3.375000	5025397.204484	-1.402339e-08
3.380000	5033540.985613	-8.546401e-09
3.385000	5041684.767487	-8.236893e-09
3.390000	5049828.525535	-1.074455e-08
3.395000	5057972.246680	-7.436128e-09
3.400000	5066115.957258	-1.366233e-08
3.405000	5074259.633745	-1.259559e-08
3.410000	5082403.282847	-1.009283e-08
3.415000	5090546.890586	-1.797711e-09
3.420000	5098690.488354	-3.374496e-09
3.425000	5106834.016762	1.058569e-09
3.430000	5114977.487171	-1.050150e-08
3.435000	5123120.877262	-4.010238e-09
3.440000	5131264.167297	-5.447093e-09
3.445000	5139407.296878	-2.237540e-09
3.450000	5147550.311824	-9.784796e-09
3.455000	5155693.162805	-4.246478e-09
3.460000	5163835.889688	-2.498477e-09
3.465000	5171978.417429	7.973483e-11
3.470000	5180120.768008	-2.216428e-10
3.475000	5188262.967233	-9.209333e-09
3.480000	5196404.995570	3.073970e-10
3.485000	5204546.876669	-1.915759e-09
3.490000	5212688.590879	-2.205027e-09
3.495000	5220830.154153	-1.208262e-09
3.500000	5228971.572425	-4.167263e-09
3.505000	5237112.807141	-2.106370e-09
3.510000	5245253.880404	-7.024090e-09
3.515000	5253394.855256	-4.843678e-09
3.520000	5261535.646747	2.053770e-09
3.525000	5269676.281856	-5.959423e-09
3.530000	5277816.759803	-8.630330e-09
3.535000	5285957.119503	-8.480736e-09
3.540000	5294097.361957	-4.312267e-10
3.545000	5302237.418107	-3.265845e-09
3.550000	5310377.336086	-1.778760e-09
3.555000	5318517.098105	4.193980e-09
3.560000	5326656.710026	5.218572e-09
3.565000	5334796.207461	-3.453226e-09
3.570000	5342935.595077	1.245371e-10
3.575000	5351074.842067	6.775219e-11
3.580000	5359214.025602	5.028884e-09
3.585000	5367353.099726	-2.643134e-09
3.590000	5375492.114220	1.088715e-09
3.595000	5383631.054662	-6.574655e-10
3.600000	5391769.923488	1.550429e-09
3.605000	5399908.743147	-1.806617e-09
3.610000	5408047.478694	4.163175e-09
3.615000	5416186.138808	-5.105065e-10
3.620000	5424324.725965	6.016583e-10
3.625000	5432463.212886	-1.763987e-09
3.630000	5440601.612129	-1.086201e-09
3.635000	5448739.937006	4.748356e-09
3.640000	5456878.185653	-3.687301e-09
3.645000	5465016.373832	-4.520112e-09
3.650000	5473154.479778	8.650191e-09
3.655000	5481292.508870	2.182133e-09
3.660000	5489430.522990	2.392516e-10
3.665000	5497568.474587	2.278297e-09
3.670000	5505706.388724	1.924494e-09
3.675000	5513844.295259	-1.045348e-10
3.680000	5521982.173620	-1.448257e-09
3.685000	5530120.020990	2.372639e-09
3.690000	5538257.842650	1.362901e-09
3.695000	5546395.641695	5.191179e-10
3.700000	5554533.404893	2.282210e-09
3.705000	5562671.111468	2.594756e-09
3.710000	5570808.786124	1.825509e-09
3.715000	5578946.424295	6.540838e-09
3.720000	5587083.990205	2.774800e-09
3.725000	5595221.538536	2.106909e-09
3.730000	5603359.057977	-4.018195e-10
3.735000	5611496.513225	1.208532e-09
3.740000	5619633.932006	2.271871e-09
3.745000	5627771.282419	2.187913e-09
3.750000	5635908.570543	-4.375568e-10
3.755000	5644045.791515	-1.894637e-10
3.760000	5652182.852795	2.006488e-09
3.765000	5660319.846272	-2.110321e-09
3.770000	5668456.668978	6.081585e-09
3.775000	5676593.368642	3.460684e-10
3.780000	5684729.922339	-2.725762e-09
3.785000	5692866.287964	-3.733344e-10
3.790000	5701002.496510	-8.986508e-10
3.795000	5709138.526233	1.836388e-09
3.800000	5717274.357780	-3.635239e-09
3.805000	5725409.995360	6.550068e-10
3.810000	5733545.440349	-1.772161e-09
3.815000	5741680.652816	5.623457e-09
3.820000	5749815.678373	-4.845486e-09
3.825000	5757950.467931	2.063549e-09
3.830000	5766085.000503	-2.229440e-09
3.835000	5774219.290781	-1.361323e-09
3.840000	5782353.336877	2.174897e-09
3.845000	5790487.118780	-1.461839e-09
3.850000	5798620.656599	5.068601e-09
3.855000	5806753.890079	-5.150315e-09
3.860000	5814886.883099	-1.262316e-09
3.865000	5823019.562705	-2.502056e-09
3.870000	5831151.982473	-1.053732e-09
3.875000	5839284.084528	5.130978e-10
3.880000	5847415.878586	-7.115527e-10
3.885000	5855547.357296	-9.438429e-10
3.890000	5863678.481938	-3.916929e-09
3.895000	5871809.270194	-1.037610e-08
3.900000	5879939.687771	-3.273720e-09
3.905000	5888069.766240	-2.989201e-09
3.910000	5896199.481454	-6.556246e-09
3.915000	5904328.821906	-4.062556e-09
3.920000	5912457.787943	-9.290153e-09
3.925000	5920586.384139	-3.119346e-09
3.930000	5928714.585023	-3.520937e-09
3.935000	5936842.414363	-1.947578e-09
3.940000	5944969.829217	-9.593733e-09
3.945000	5953096.881988	-4.225650e-09
3.950000	5961223.533452	-1.262133e-09
3.955000	5969349.814332	-1.910473e-09
3.960000	5977475.692190	-8.152600e-10
3.965000	5985601.190585	-8.834510e-09
3.970000	5993726.298909	-8.202698e-09
3.975000	6001850.984871	-2.609447e-09
3.980000	6009975.252681	-3.133231e-09
3.985000	6018099.117949	-9.204248e-09
3.990000	6026222.542965	-4.127519e-09
3.995000	6034345.496895	-4.579696e-09
4.000000	6042467.999080	-2.364306e-09
4.005000	6050590.036358	-6.977925e-09
4.010000	6058711.584758	-3.144395e-09
4.015000	6066832.647322	-5.667086e-09
4.020000	6074953.179049	-4.384557e-09
4.025000	6083073.168125	-2.344964e-09