0.000000	0.000000	6.145809e-06
0.005000	49.724350	1.477058e-06
0.010000	178.907837	1.700233e-06
0.015000	391.093177	1.683212e-06
0.020000	687.322827	1.661553e-06
0.025000	1066.017965	1.637314e-06
0.030000	1526.125910	1.617433e-06
0.035000	2066.755534	1.611392e-06
0.040000	2687.050630	1.582895e-06
0.045000	3386.093993	1.568408e-06
0.050000	4163.007985	1.555458e-06
0.055000	5016.930052	1.535948e-06
0.060000	5946.984114	1.523745e-06
0.065000	6952.303731	1.499844e-06
0.070000	8032.051391	1.493420e-06
0.075000	9185.386071	1.465384e-06
0.080000	10411.448382	1.450017e-06
0.085000	11709.485460	1.437685e-06
0.090000	13078.612659	1.424475e-06
0.095000	14518.070524	1.406769e-06
0.100000	16027.075291	1.388151e-06
0.105000	17604.835390	1.371581e-06
0.110000	19250.584106	1.357667e-06
0.115000	20963.551020	1.332438e-06
0.120000	22742.999680	1.317564e-06
0.125000	24588.188396	1.315535e-06
0.130000	26498.334316	1.306038e-06
0.135000	28472.756283	1.281565e-06
0.140000	30510.734331	1.266493e-06
0.145000	32611.547656	1.248323e-06
0.150000	34774.460113	1.236084e-06
0.155000	36998.820547	1.227987e-06
0.160000	39283.892739	1.208847e-06
0.165000	41629.012362	1.197759e-06
0.170000	44033.540862	1.174194e-06
0.175000	46496.772752	1.165962e-06
0.180000	49018.067757	1.161520e-06
0.185000	51596.769813	1.154233e-06
0.190000	54232.270965	1.120654e-06
0.195000	56923.884895	1.116315e-06
0.200000	59671.004322	1.106487e-06
0.205000	62473.008213	1.088605e-06
0.210000	65329.256779	1.083594e-06
0.215000	68239.172052	1.060188e-06
0.220000	71202.144477	1.049698e-06
0.225000	74217.564800	1.040601e-06
0.230000	77284.818269	1.029136e-06
0.235000	80403.361513	1.019229e-06
0.240000	83572.601001	1.016125e-06
0.245000	86791.968751	9.930153e-07
0.250000	90060.899975	9.908307e-07
0.255000	93378.823857	9.799335e-07
0.260000	96745.187849	9.684148e-07
0.265000	100159.438450	9.446192e-07
0.270000	103621.026640	9.453199e-07
0.275000	107129.430236	9.344681e-07
0.280000	110684.111735	9.165437e-07
0.285000	114284.553343	9.096788e-07
0.290000	117930.215708	8.943526e-07
0.295000	121620.576920	8.891960e-07
0.300000	125355.183195	8.830837e-07
0.305000	129133.505165	8.692450e-07
0.310000	132955.027940	8.647906e-07
0.315000	136819.258725	8.524551e-07
0.320000	140725.731662	8.432473e-07
0.325000	144673.969252	8.299254e-07
0.330000	148663.455670	8.271507e-07
0.335000	152693.752978	8.202043e-07
0.340000	156764.384254	7.976286e-07
0.345000	160874.854511	7.986216e-07
0.350000	165024.753474	7.866573e-07
0.355000	169213.637021	7.818243e-07
0.360000	173441.016779	7.730929e-07
0.365000	177706.497319	7.726448e-07
0.370000	182009.636937	7.555218e-07
0.375000	186349.987923	7.505141e-07
0.380000	190727.143288	7.350747e-07
0.385000	195140.688276	7.309648e-07
0.390000	199590.200746	7.205832e-07
0.395000	204075.304474	7.134001e-07
0.400000	208595.536998	7.062619e-07
0.405000	213150.527141	6.897088e-07
0.410000	217739.877909	6.888751e-07
0.415000	222363.191666	6.845718e-07
0.420000	227020.071150	6.768915e-07
0.425000	231710.145668	6.627519e-07
0.430000	236432.996339	6.567857e-07
0.435000	241188.295426	6.555745e-07
0.440000	245975.626848	6.528962e-07
0.445000	250794.669130	6.362373e-07
0.450000	255645.015693	6.272922e-07
0.455000	260526.351788	6.253744e-07
0.460000	265438.319366	6.147688e-07
0.465000	270380.527479	6.101799e-07
0.470000	275352.671914	6.037592e-07
0.475000	280354.415335	5.910216e-07
0.480000	285385.386327	5.860000e-07
0.485000	290445.272712	5.827027e-07
0.490000	295533.786156	5.719757e-07
0.495000	300650.568242	5.691712e-07
0.500000	305795.309879	5.596106e-07
0.505000	310967.717334	5.601130e-07
0.510000	316167.472532	5.488710e-07
0.515000	321394.235478	5.403569e-07
0.520000	326647.745343	5.405555e-07
0.525000	331927.690281	5.300652e-07
0.530000	337233.760525	5.306160e-07
0.535000	342565.680707	5.143655e-07
0.540000	347923.190920	5.064917e-07
0.545000	353305.954176	5.081055e-07
0.550000	358713.717384	4.988522e-07
0.555000	364146.210945	4.961995e-07
0.560000	369603.175393	4.898321e-07
0.565000	375084.287617	4.777741e-07
0.570000	380589.305836	4.689267e-07
0.575000	386117.979833	4.761775e-07
0.580000	391670.059535	4.663048e-07
0.585000	397245.244726	4.578586e-07
0.590000	402843.323529	4.532469e-07
0.595000	408464.018197	4.541300e-07
0.600000	414107.084961	4.443473e-07
0.605000	419772.249974	4.418383e-07
0.610000	425459.295871	4.398138e-07
0.615000	431167.915161	4.368879e-07
0.620000	436897.912359	4.264084e-07
0.625000	442649.051015	4.162564e-07
0.630000	448421.063852	4.310257e-07
0.635000	454213.714361	4.091052e-07
0.640000	460026.815304	4.098181e-07
0.645000	465860.091655	4.059316e-07
0.650000	471713.327546	3.990086e-07
0.655000	477586.270840	3.910616e-07
0.660000	483478.750411	3.905716e-07
0.665000	489390.539849	3.835094e-07
0.670000	495321.380522	3.933408e-07
0.675000	501271.110448	3.782472e-07
0.680000	507239.477542	3.664216e-07
0.685000	513226.278431	3.719618e-07
0.690000	519231.336030	3.601521e-07
0.695000	525254.391213	3.626753e-07
0.700000	531295.299379	3.529561e-07
0.705000	537353.817456	3.486590e-07
0.710000	543429.776018	3.545765e-07
0.715000	549522.978047	3.427530e-07
0.720000	555633.188797	3.389205e-07
0.725000	561760.235102	3.366005e-07
0.730000	567903.945460	3.336255e-07
0.735000	574064.106873	3.223697e-07
0.740000	580240.560418	3.290427e-07
0.745000	586433.090383	3.200429e-07
0.750000	592641.562191	3.198870e-07
0.755000	598865.760359	3.116951e-07
0.760000	605105.512298	3.060939e-07
0.765000	611360.629696	3.069173e-07
0.770000	617630.941246	2.989410e-07
0.775000	623916.294794	3.005295e-07
0.780000	630216.501206	2.965944e-07
0.785000	636531.397269	2.853853e-07
0.790000	642860.769267	2.851727e-07
0.795000	649204.504492	2.933741e-07
0.800000	655562.433422	2.718169e-07
0.805000	661934.387307	2.826292e-07
0.810000	668320.217522	2.818248e-07
0.815000	674719.760713	2.775325e-07
0.820000	681132.879153	2.719620e-07
0.825000	687559.411120	2.631499e-07
0.830000	693999.251193	2.585901e-07
0.835000	700452.185430	2.594600e-07
0.840000	706918.092117	2.552393e-07
0.845000	713396.838895	2.504329e-07
0.850000	719888.255132	2.579872e-07
0.855000	726392.228491	2.450190e-07
0.860000	732908.609646	2.401795e-07
0.865000	739437.256892	2.500320e-07
0.870000	745978.064892	2.368250e-07
0.875000	752530.818242	2.368522e-07
0.880000	759095.448834	2.326780e-07
0.885000	765671.830622	2.285097e-07
0.890000	772259.799165	2.266082e-07
0.895000	778859.221614	2.225348e-07
0.900000	785469.981623	2.183065e-07
0.905000	792091.966575	2.307573e-07
0.910000	798725.056553	2.214792e-07
0.915000	805369.132638	2.193342e-07
0.920000	812024.044826	1.986285e-07
0.925000	818689.693790	2.088681e-07
0.930000	825365.948038	2.126076e-07
0.935000	832052.686980	2.043220e-07
0.940000	838749.841498	2.007204e-07
0.945000	845457.203819	2.067716e-07
0.950000	852174.682481	2.016096e-07
0.955000	858902.186490	1.911925e-07
0.960000	865639.613102	1.953330e-07
0.965000	872386.758180	1.864020e-07
0.970000	879143.616721	1.891218e-07
0.975000	885909.999285	1.856467e-07
0.980000	892685.791966	1.796311e-07
0.985000	899470.916506	1.779853e-07
0.990000	906265.191008	1.714861e-07
0.995000	913068.571717	1.758287e-07
1.000000	919880.917244	1.655688e-07
1.005000	926702.151613	1.754501e-07
1.010000	933532.131146	1.625243e-07
1.015000	940370.761439	1.673295e-07
1.020000	947217.963663	1.568738e-07
1.025000	954073.662850	1.662611e-07
1.030000	960937.697559	1.591873e-07
1.035000	967810.008882	1.558225e-07
1.040000	974690.487469	1.569027e-07
1.045000	981579.018056	1.547918e-07
1.050000	988475.526961	1.504061e-07
1.055000	995379.927011	1.470392e-07
1.060000	1002292.123697	1.470662e-07
1.065000	1009212.033738	1.468407e-07
1.070000	1016139.526172	1.433929e-07
1.075000	1023074.536951	1.376283e-07
1.080000	1030016.963684	1.389154e-07
1.085000	1036966.717280	1.415426e-07
1.090000	1043923.649421	1.366176e-07
1.095000	1050887.748385	1.273473e-07
1.100000	1057858.924270	1.352179e-07
1.105000	1064837.008577	1.288681e-07
1.110000	1071821.964881	1.192821e-07
1.115000	1078813.665350	1.278754e-07
1.120000	1085812.046988	1.228229e-07
1.125000	1092816.981370	1.212080e-07
1.130000	1099828.410302	1.159828e-07
1.135000	1106846.229368	1.226419e-07
1.140000	1113870.295317	1.109864e-07
1.145000	1120900.589495	1.173717e-07
1.150000	1127937.022938	1.124939e-07
1.155000	1134979.478553	1.126358e-07
1.160000	1142027.900512	1.047789e-07
1.165000	1149082.215060	1.027006e-07
1.170000	1156142.356644	1.088334e-07
1.175000	1163208.220525	1.025154e-07
1.180000	1170279.771697	1.084393e-07
1.185000	1177356.869819	9.597357e-08
1.190000	1184439.476701	1.029239e-07
1.195000	1191527.532072	9.749403e-08
1.200000	1198620.975093	9.721778e-08
1.205000	1205719.685418	9.877529e-08
1.210000	1212823.582741	9.463707e-08
1.215000	1219932.609705	1.035586e-07
1.220000	1227046.673708	9.677129e-08
1.225000	1234165.728481	9.244534e-08
1.230000	1241289.705354	8.914460e-08
1.235000	1248418.521597	9.431431e-08
1.240000	1255552.117865	9.698299e-08
1.245000	1262690.440256	9.138758e-08
1.250000	1269833.391267	8.526323e-08
1.255000	1276980.941550	8.682835e-08
1.260000	1284132.927785	8.367758e-08
1.265000	1291289.360995	7.860430e-08
1.270000	1298450.154396	8.219484e-08
1.275000	1305615.293854	8.425034e-08
1.280000	1312784.694761	8.579930e-08
1.285000	1319958.239096	7.831349e-08
1.290000	1327135.972707	8.752504e-08
1.295000	1334317.811843	8.109709e-08
1.300000	1341503.668670	7.399843e-08
1.305000	1348693.517124	8.095528e-08
1.310000	1355887.333445	7.783036e-08
1.315000	1363085.023086	7.371175e-08
1.320000	1370286.550225	6.971078e-08
1.325000	1377491.884730	7.242380e-08
1.330000	1384700.911113	6.392379e-08
1.335000	1391913.619162	8.023577e-08
1.340000	1399129.986171	7.091935e-08
1.345000	1406349.933470	7.440090e-08
1.350000	1413573.385045	7.377155e-08
1.355000	1420800.340102	6.425693e-08
1.360000	1428030.668451	6.376483e-08
1.365000	1435264.368330	6.523302e-08
1.370000	1442501.331686	6.973878e-08
1.375000	1449741.514106	6.818314e-08
1.380000	1456984.857981	6.513320e-08
1.385000	1464231.355071	6.513224e-08
1.390000	1471480.895609	5.893674e-08
1.395000	1478733.368716	6.201806e-08
1.400000	1485988.792618	5.253966e-08
1.405000	1493247.116549	5.953404e-08
1.410000	1500508.200332	5.760271e-08
1.415000	1507772.008692	5.540288e-08
1.420000	1515038.523971	5.614547e-08
1.425000	1522307.690788	5.034478e-08
1.430000	1529579.436779	4.957970e-08
1.435000	1536853.771486	5.064277e-08
1.440000	1544130.601406	4.958183e-08
1.445000	1551409.950804	5.108831e-08
1.450000	1558691.665455	4.827447e-08
1.455000	1565975.740853	5.095467e-08
1.460000	1573262.155725	5.059927e-08
1.465000	1580550.739857	4.337454e-08
1.470000	1587841.482742	4.286273e-08
1.475000	1595134.408754	5.123194e-08
1.480000	1602429.369478	3.712381e-08
1.485000	1609726.386155	3.699244e-08
1.490000	1617025.384422	4.454598e-08
1.495000	1624326.320374	3.603852e-08
1.500000	1631629.235556	4.043485e-08
1.505000	1638934.074346	3.096255e-08
1.510000	1646240.764351	4.516417e-08
1.515000	1653549.320186	3.437783e-08
1.520000	1660859.683794	3.874365e-08
1.525000	1668171.819978	3.881826e-08
1.530000	1675485.670400	3.940121e-08
1.535000	1682801.235588	3.736765e-08
1.540000	1690118.463958	3.723647e-08
1.545000	1697437.361191	4.004114e-08
1.550000	1704757.855746	4.056898e-08
1.555000	1712079.919767	2.728170e-08
1.560000	1719403.613381	3.812896e-08
1.565000	1726728.841752	2.602038e-08
1.570000	1734055.602660	3.197120e-08
1.575000	1741383.842068	3.763273e-08
1.580000	1748713.530721	2.561773e-08
1.585000	1756044.729979	2.866155e-08
1.590000	1763377.328018	3.602395e-08
1.595000	1770711.345538	3.418808e-08
1.600000	1778046.751507	2.967626e-08
1.605000	1785383.603311	2.651408e-08
1.610000	1792721.810770	2.955153e-08
1.615000	1800061.357534	3.484003e-08
1.620000	1807402.230618	2.930011e-08
1.625000	1814744.406346	3.420933e-08
1.630000	1822087.859048	1.948631e-08
1.635000	1829432.536697	2.485759e-08
1.640000	1836778.402377	2.116747e-08
1.645000	1844125.494106	2.787556e-08
1.650000	1851473.715365	2.022212e-08
1.655000	1858823.083585	1.952253e-08
1.660000	1866173.592133	2.697380e-08
1.665000	1873525.203473	2.501978e-08
1.670000	1880877.903879	2.646409e-08
1.675000	1888231.611001	2.364265e-08
1.680000	1895586.389164	2.137564e-08
1.685000	1902942.136163	2.655357e-08
1.690000	1910298.915124	2.747058e-08
1.695000	1917656.655641	1.384939e-08
1.700000	1925015.324362	1.181351e-08
1.705000	1932374.886559	1.680278e-08
1.710000	1939735.398898	1.813736e-08
1.715000	1947096.747648	2.162792e-08
1.720000	1954458.951165	1.527369e-08
1.725000	1961822.023915	2.003201e-08
1.730000	1969185.912589	2.217273e-08
1.735000	1976550.586001	1.509583e-08
1.740000	1983916.054118	1.762078e-08
1.745000	1991282.310741	1.159471e-08
1.750000	1998649.303139	1.414737e-08
1.755000	2006017.034597	1.326380e-08
1.760000	2013385.535767	1.396304e-08
1.765000	2020754.689160	1.874314e-08
1.770000	2028124.529709	1.389601e-08
1.775000	2035495.067637	1.984945e-08
1.780000	2042866.284394	1.845687e-08
1.785000	2050238.209321	1.893715e-08
1.790000	2057610.775206	1.632418e-08
1.795000	2064983.994310	1.119611e-08
1.800000	2072357.892241	8.028526e-09
1.805000	2079732.476593	1.205511e-08
1.810000	2087107.703167	1.284481e-08
1.815000	2094483.497858	1.566376e-08
1.820000	2101859.847443	1.179034e-08
1.825000	2109236.878113	1.153605e-08
1.830000	2116614.479066	8.990169e-09
1.835000	2123992.667950	1.401620e-08
1.840000	2131371.451558	9.786589e-09
1.845000	2138750.857602	1.379742e-08
1.850000	2146130.788626	1.622587e-08
1.855000	2153511.272799	1.186310e-08
1.860000	2160892.327848	7.374766e-09
1.865000	2168273.914801	1.682234e-08
1.870000	2175656.016198	1.034015e-08
1.875000	2183038.658626	9.156720e-09
1.880000	2190421.847851	1.012306e-08
1.885000	2197805.564740	8.543808e-09
1.890000	2205189.790228	1.576922e-08
1.895000	2212574.495254	1.254678e-08
1.900000	2219959.685270	1.251505e-08
1.905000	2227345.399528	9.565362e-09
1.910000	2234731.475751	2.073599e-08
1.915000	2242117.974166	7.124263e-09
1.920000	2249504.983794	1.474128e-08
1.925000	2256892.406315	1.413202e-08
1.930000	2264280.170800	1.146686e-08
1.935000	2271668.346051	4.051618e-09
1.940000	2279057.000896	7.815958e-09
1.945000	2286446.074460	8.990968e-09
1.950000	2293835.450816	1.256321e-08
1.955000	2301225.165974	1.329179e-08
1.960000	2308615.297007	-2.729391e-09
1.965000	2316005.752912	1.315689e-08
1.970000	2323396.545957	7.309266e-09
1.975000	2330787.608579	1.210104e-09
1.980000	2338178.978694	7.765408e-09
1.985000	2345570.602208	1.072598e-08
1.990000	2352962.514482	5.135866e-09
1.995000	2360354.653416	1.250015e-08
2.000000	2367746.988131	1.467329e-08
2.005000	2375139.554230	2.511731e-09
2.010000	2382532.348076	5.251378e-09
2.015000	2389925.357928	4.858414e-10
2.020000	2397318.577585	1.676334e-10
2.025000	2404711.983482	3.833891e-09
2.030000	2412105.617993	2.773715e-09
2.035000	2419499.418037	-2.656122e-09
2.040000	2426893.396433	-1.824068e-09
2.045000	2434287.526170	-1.131292e-09
2.050000	2441681.804091	4.634893e-09
2.055000	2449076.232947	7.629083e-09
2.060000	2456470.779656	3.600494e-09
2.065000	2463865.467242	1.706804e-09
2.070000	2471260.275371	4.617678e-09
2.075000	2478655.208911	-1.306612e-09
2.080000	2486050.300509	-5.468392e-09
2.085000	2493445.518410	5.125050e-09
2.090000	2500840.798531	7.992956e-10
2.095000	2508236.173994	3.448399e-09
2.100000	2515631.649646	1.139421e-09
2.105000	2523027.236545	-1.551160e-09
2.110000	2530422.909795	6.608745e-09
2.115000	2537818.693130	1.151019e-09
2.120000	2545214.576498	-3.294770e-09
2.125000	2552610.556352	-1.573106e-09
2.130000	2560006.643192	3.305986e-09
2.135000	2567402.850589	-4.651042e-11
2.140000	2574799.112530	2.673284e-09
2.145000	2582195.444848	4.831167e-09
2.150000	2589591.825433	1.331662e-09
2.155000	2596988.257359	3.782521e-09
2.160000	2604384.743211	-6.935829e-09
2.165000	2611781.331989	1.254638e-09
2.170000	2619177.995153	3.967096e-09
2.175000	2626574.682795	1.070542e-08
2.180000	2633971.428405	7.617716e-09
2.185000	2641368.197727	2.923813e-10
2.190000	2648765.036671	7.652052e-09
2.195000	2656161.971926	-2.024262e-09
2.200000	2663558.993563	1.828534e-09
2.205000	2670956.089478	1.230760e-09
2.210000	2678353.265285	-1.853904e-09
2.215000	2685750.537430	1.837993e-09
2.220000	2693147.893678	4.985501e-09
2.225000	2700545.345587	2.202042e-09
2.230000	2707942.896316	-2.367415e-09
2.235000	2715340.534098	5.312328e-09
2.240000	2722738.238994	9.555038e-10
2.245000	2730136.096814	3.349681e-09
2.250000	2737534.005493	1.914213e-09
2.255000	2744932.003668	-2.156646e-10
2.260000	2752330.043869	-3.439752e-09
2.265000	2759728.178040	2.020260e-10
2.270000	2767126.342291	4.044261e-09
2.275000	2774524.567542	-1.708750e-09
2.280000	2781922.819522	2.954067e-09
2.285000	2789321.134521	7.227392e-09
2.290000	2796719.498633	1.508192e-09
2.295000	2804117.920867	-3.362687e-09
2.300000	2811516.351495	-8.990696e-10
2.305000	2818914.793857	-5.609831e-11
2.310000	2826313.271435	-3.310079e-09
2.315000	2833711.787895	1.957117e-09
2.320000	2841110.266602	-1.583803e-09
2.325000	2848508.777021	-9.017484e-10
2.330000	2855907.325757	-5.198306e-09
2.335000	2863305.926463	2.059810e-09
2.340000	2870704.576401	4.329425e-10
2.345000	2878103.236346	6.366615e-09
2.350000	2885501.964446	-2.175894e-09
2.355000	2892900.764504	7.662732e-09
2.360000	2900299.610238	3.523918e-09
2.365000	2907698.531353	4.626238e-09
2.370000	2915097.532467	7.655433e-10
2.375000	2922496.690722	8.847647e-09
2.380000	2929895.937192	1.055632e-09
2.385000	2937295.288386	8.857970e-09
2.390000	2944694.867800	3.663251e-09
2.395000	2952094.650399	6.457179e-10
2.400000	2959494.592822	5.955423e-09
2.405000	2966894.771074	6.605559e-09
2.410000	2974295.175961	6.462153e-09
2.415000	2981695.867629	1.642284e-09
2.420000	2989096.852889	1.417143e-08
2.425000	2996498.032250	2.344996e-09
2.430000	3003899.528655	7.305391e-09
2.435000	3011301.395802	1.400375e-08
2.440000	3018703.535527	3.121248e-09
2.445000	3026106.028655	1.073341e-08
2.450000	3033508.857089	6.336549e-10
2.455000	3040911.997052	8.917282e-09
2.460000	3048315.513414	1.972916e-10
2.465000	3055719.396945	8.974022e-09
2.470000	3063123.630124	-1.158860e-09
2.475000	3070528.244104	7.790709e-09
2.480000	3077933.277001	1.087825e-08
2.485000	3085338.678990	1.321539e-08
2.490000	3092744.463049	3.875928e-09
2.495000	3100150.655106	4.518062e-09
2.500000	3107557.223336	6.068451e-09
2.505000	3114964.207053	8.286581e-09
2.510000	3122371.595540	4.140483e-09
2.515000	3129779.389516	4.914432e-09
2.520000	3137187.581294	9.973611e-09
2.525000	3144596.214879	5.987252e-09
2.530000	3152005.299588	8.602113e-09
2.535000	3159414.797890	6.700111e-09
2.540000	3166824.717692	1.256041e-08
2.545000	3174235.099767	1.704672e-08
2.550000	3181645.947842	1.160276e-08
2.555000	3189057.232559	1.418314e-09
2.560000	3196468.942897	7.092989e-09
2.565000	3203881.165280	8.603328e-09
2.570000	3211293.844516	5.110603e-09
2.575000	3218706.967650	8.326672e-09
2.580000	3226120.549764	1.525918e-08
2.585000	3233534.644751	7.453280e-09
2.590000	3240949.168961	7.767397e-09
2.595000	3248364.110047	3.727090e-09
2.600000	3255779.474041	1.496430e-08
2.605000	3263195.239945	9.177337e-09
2.610000	3270611.421886	5.714732e-09
2.615000	3278028.023209	1.478574e-09
2.620000	3285445.009362	7.379745e-09
2.625000	3292862.394401	5.404383e-09
2.630000	3300280.187484	1.157694e-08
2.635000	3307698.365557	9.964050e-09
2.640000	3315116.971049	-6.672494e-10
2.645000	3322535.989414	1.676812e-08
2.650000	3329955.349669	7.307010e-09
2.655000	3337375.081862	8.473534e-09
2.660000	3344795.181859	7.940132e-09
2.665000	3352215.641061	1.121898e-08
2.670000	3359636.454750	5.924389e-09
2.675000	3367057.630890	1.450738e-08
2.680000	3374479.160887	6.373565e-09
2.685000	3381901.075511	1.214037e-08
2.690000	3389323.354845	4.344561e-09
2.695000	3396746.042249	1.063701e-08
2.700000	3404169.130879	6.260002e-09
2.705000	3411592.618603	1.220903e-08
2.710000	3419016.484231	1.348290e-08
2.715000	3426440.752656	6.273109e-09
2.720000	3433865.440160	8.181068e-09
2.725000	3441290.548215	1.237823e-08
2.730000	3448716.040147	-1.088233e-09
2.735000	3456141.868038	1.986772e-09
2.740000	3463568.141881	-1.962718e-09
2.745000	3470994.811892	1.499879e-08
2.750000	3478421.791935	-4.719460e-10
2.755000	3485849.215327	8.646146e-09
2.760000	3493277.068966	-8.565494e-10
2.765000	3500705.351594	6.705898e-09
2.770000	3508134.035367	1.396766e-09
2.775000	3515563.208364	-1.217717e-10
2.780000	3522992.837136	8.877432e-09
2.785000	3530422.923164	8.420390e-09
2.790000	3537853.442159	1.853406e-10
2.795000	3545284.442596	5.390636e-09
2.800000	3552715.851858	7.367539e-09
2.805000	3560147.704963	8.060286e-09
2.810000	3567580.016637	7.360641e-09
2.815000	3575012.772254	1.285584e-10
2.820000	3582445.968945	1.391027e-08
2.825000	3589879.592964	3.274323e-09
2.830000	3597313.648076	1.079993e-08
2.835000	3604748.127762	5.915006e-09
2.840000	3612182.989209	-6.619705e-10
2.845000	3619618.338388	1.496138e-09
2.850000	3627054.100342	8.933367e-09
2.855000	3634490.286088	5.355258e-09
2.860000	3641926.931698	-2.016057e-10
2.865000	3649364.005026	1.000997e-08
2.870000	3656801.487693	6.066585e-09
2.875000	3664239.440306	5.036835e-09
2.880000	3671677.830244	2.733628e-09
2.885000	3679116.688578	6.853330e-09
2.890000	3686555.984179	3.741817e-09
2.895000	3693995.733695	7.538856e-10
2.900000	3701435.977321	1.161725e-08
2.905000	3708876.715608	-2.356775e-10
2.910000	3716317.922371	7.298634e-09
2.915000	3723759.630514	-3.295033e-09
2.920000	3731201.824680	9.441986e-09
2.925000	3738644.554490	4.189518e-09
2.930000	3746087.858477	-1.410477e-09
2.935000	3753531.638192	5.219609e-09
2.940000	3760976.062705	4.683491e-09
2.945000	3768421.080285	3.176375e-09
2.950000	3775866.652921	4.947616e-09
2.955000	3783312.827024	-6.386661e-10
2.960000	3790759.561452	3.442372e-09
2.965000	3798206.865497	8.985868e-09
2.970000	3805654.762208	2.393120e-09
2.975000	3813103.270412	9.383924e-09
2.980000	3820552.316705	1.742909e-09
2.985000	3828001.937399	8.177769e-09
2.990000	3835452.196113	1.622107e-08
2.995000	3842903.100433	1.747624e-08
3.000000	3850354.626758	5.015524e-09
3.005000	3857806.812090	8.045839e-09
3.010000	3865259.611772	1.301627e-08
3.015000	3872712.996095	1.084882e-08
3.020000	3880167.063609	7.657486e-09
3.025000	3887621.808163	3.778060e-09
3.030000	3895077.186136	1.710541e-08
3.035000	3902533.238993	5.208103e-10
3.040000	3909990.006076	1.291692e-08
3.045000	3917447.410482	8.870005e-09
3.050000	3924905.478599	4.634291e-09
3.055000	3932364.252978	4.044729e-09
3.060000	3939823.666395	5.652185e-09
3.065000	3947283.727997	6.279703e-09
3.070000	3954744.493756	1.052331e-08
3.075000	3962205.931052	8.269091e-09
3.080000	3969667.969824	1.346027e-08
3.085000	3977130.675436	1.282009e-08
3.090000	3984594.071687	5.070889e-09
3.095000	3992058.102903	2.211011e-09
3.100000	3999522.731579	1.046308e-08
3.105000	4006988.102639	6.130896e-09
3.110000	4014454.084314	1.096427e-08
3.115000	4021920.676287	3.706328e-09
3.120000	4029388.012336	-9.997262e-10
3.125000	4036855.958793	1.524914e-08
3.130000	4044324.696402	1.430246e-08
3.135000	4051794.106651	8.019798e-09
3.140000	4059264.205420	9.964623e-09
3.145000	4066735.084487	2.115327e-08
3.150000	4074206.647077	1.704447e-08
3.155000	4081678.948767	2.555368e-09
3.160000	4089151.983954	1.515946e-08
3.165000	4096625.790815	1.247683e-08
3.170000	4104100.361726	4.348017e-09
3.175000	4111575.716019	1.074983e-08
3.180000	4119051.822575	1.509178e-08
3.185000	4126528.738062	1.291774e-08
3.190000	4134006.488129	1.729149e-08
3.195000	4141485.004717	8.474383e-09
3.200000	4148964.350848	1.136202e-08
3.205000	4156444.511379	1.370829e-08
3.210000	4163925.549618	1.186748e-08
3.215000	4171407.394880	1.553421e-08
3.220000	4178890.068696	1.211101e-08
3.225000	4186373.610144	1.676469e-08
3.230000	4193857.990719	1.430590e-08
3.235000	4201343.250397	9.161776e-09
3.240000	4208829.350167	1.479875e-08
3.245000	4216316.302093	2.107621e-08
3.250000	4223804.151968	1.601625e-08
3.255000	4231292.862577	1.909421e-08
3.260000	4238782.473412	1.785393e-08
3.265000	4246272.828658	1.210829e-08
3.270000	4253764.144015	7.502945e-09
3.275000	4261256.333466	1.029388e-08
3.280000	4268749.465547	1.018509e-08
3.285000	4276243.503811	1.424904e-08
3.290000	4283738.476490	8.385706e-09
3.295000	4291234.366563	1.593575e-08
3.300000	4298731.228289	6.908403e-09
3.305000	4306228.950724	2.112575e-08
3.310000	4313727.678399	9.121261e-09
3.315000	4321227.293933	5.729818e-09
3.320000	4328727.919251	6.414484e-09
3.325000	4336229.446959	1.692802e-08
3.330000	4343731.977528	1.527414e-08
3.335000	4351235.438357	1.407220e-08
3.340000	4358739.826427	1.154575e-08
3.345000	4366245.174679	1.074331e-08
3.350000	4373751.456503	8.338388e-09
3.355000	4381258.683389	8.568027e-09
3.360000	4388766.736430	1.065074e-08
3.365000	4396275.698944	1.153001e-08
3.370000	4403785.475683	9.756315e-09
3.375000	4411296.258193	4.884908e-09
3.380000	4418807.825572	1.583658e-08
3.385000	4426320.250650	1.482164e-08
3.390000	4433833.628437	7.045128e-09
3.395000	4441347.878905	1.233880e-08
3.400000	4448862.989347	1.574995e-08
3.405000	4456378.918266	1.292955e-08
3.410000	4463895.742932	1.005247e-08
3.415000	4471413.332075	2.273142e-08
3.420000	4478931.777846	7.301988e-09
3.425000	4486451.172761	1.120883e-08
3.430000	4493971.287003	9.248557e-09
3.435000	4501492.251772	1.964929e-08
3.440000	4509014.085598	1.418008e-08
3.445000	4516536.728893	1.189960e-08
3.450000	4524060.224698	1.743678e-08
3.455000	4531584.538630	1.511233e-08
3.460000	4539109.715496	1.212005e-08
3.465000	4546635.792120	1.309751e-08
3.470000	4554162.710197	1.342127e-08
3.475000	4561690.474450	5.762897e-09
3.480000	4569219.029712	9.598532e-09
3.485000	4576748.348914	1.916438e-08
3.490000	4584278.508201	1.597687e-08
3.495000	4591809.498231	1.480314e-08
3.500000	4599341.382811	8.280332e-09
3.505000	4606874.100250	7.327532e-09
3.510000	4614407.657146	1.373085e-08
3.515000	4621942.054028	9.860506e-09
3.520000	4629477.291224	1.671987e-08
3.525000	4637013.424902	9.561356e-09
3.530000	4644550.450039	1.029973e-08
3.535000	4652088.386959	1.152947e-08
3.540000	4659627.186199	8.347981e-09
3.545000	4667166.812621	1.300903e-08
3.550000	4674707.323240	7.551209e-09
3.555000	4682248.699108	9.486399e-09
3.560000	4689790.898543	1.242948e-08
3.565000	4697333.918898	5.373628e-09
3.570000	4704877.826798	8.139279e-09
3.575000	4712422.586127	5.756177e-09
3.580000	4719968.113924	1.483952e-08
3.585000	4727514.449844	4.606122e-09
3.590000	4735061.645054	1.580813e-08
3.595000	4742609.681346	7.998403e-09
3.600000	4750158.492968	4.089466e-09
3.605000	4757708.054005	5.700238e-09
3.610000	4765258.425839	1.491389e-08
3.615000	4772809.585289	1.113413e-08
3.620000	4780361.556845	2.096559e-09
3.625000	4787914.330186	1.190325e-08
3.630000	4795467.904697	8.493693e-09
3.635000	4803022.244273	1.330021e-08
3.640000	4810577.390360	1.554095e-08
3.645000	4818133.406113	9.633534e-09
3.650000	4825690.201942	6.184324e-09
3.655000	4833247.781046	1.371809e-08
3.660000	4840806.260124	8.400485e-09
3.665000	4848365.559957	1.274336e-08
3.670000	4855925.647778	9.784597e-09
3.675000	4863486.585593	8.159259e-09
3.680000	4871048.388716	1.727498e-08
3.685000	4878611.005970	1.125550e-08
3.690000	4886174.548430	1.624005e-08
3.695000	4893738.998678	1.279869e-08
3.700000	4901304.302030	2.179658e-08
3.705000	4908870.599862	7.131490e-09
3.710000	4916437.828264	1.104988e-08
3.715000	4924005.998305	1.277428e-08
3.720000	4931575.112470	1.150562e-08
3.725000	4939145.148022	5.507382e-09
3.730000	4946716.058298	1.522523e-08
3.735000	4954287.984266	1.657244e-08
3.740000	4961860.909666	1.100771e-08
3.745000	4969434.790768	1.087246e-08
3.750000	4977009.752048	2.173223e-08
3.755000	4984585.603678	1.705093e-08
3.760000	4992162.454614	2.257155e-08
3.765000	4999740.317461	1.538784e-08
3.770000	5007319.091987	1.668950e-08
3.775000	5014898.885537	1.989463e-08
3.780000	5022479.655023	1.711269e-08
3.785000	5030061.354452	1.301400e-08
3.790000	5037644.074325	1.978227e-08
3.795000	5045227.734524	1.329439e-08
3.800000	5052812.321110	1.484119e-08
3.805000	5060397.877759	1.642270e-08
3.810000	5067984.301371	1.017014e-08
3.815000	5075571.690637	1.103416e-08
3.820000	5083159.883595	1.124397e-08
3.825000	5090749.036634	1.408002e-08
3.830000	5098339.088007	2.509276e-09
3.835000	5105930.046353	1.711555e-08
3.840000	5113521.953644	7.835031e-09
3.845000	5121114.848905	1.481246e-08
3.850000	5128708.645422	1.533239e-08
3.855000	5136303.332897	1.521171e-08
3.860000	5143898.915988	1.244386e-08
3.865000	5151495.406605	1.473140e-08
3.870000	5159092.806926	1.541194e-08
3.875000	5166691.081435	1.447633e-08
3.880000	5174290.305004	1.158435e-08
3.885000	5181890.451008	1.173535e-08
3.890000	5189491.453961	1.598929e-08
3.895000	5197093.440259	8.385243e-09
3.900000	5204696.188311	1.307342e-08
3.905000	5212299.859505	1.799457e-08
3.910000	5219904.357376	3.236430e-09
3.915000	5227509.682482	1.232672e-08
3.920000	5235115.807929	9.920123e-09
3.925000	5242722.763641	8.977505e-09
3.930000	5250330.522321	8.889139e-09
3.935000	5257939.047268	8.006089e-09
3.940000	5265548.341501	5.596148e-09
3.945000	5273158.385270	1.685003e-08
3.950000	5280769.248193	1.207643e-08
3.955000	5288380.837739	8.473872e-09
3.960000	5295993.156965	8.244557e-09
3.965000	5303606.183887	4.466005e-10
3.970000	5311219.963635	1.998143e-08
3.975000	5318834.379827	1.539825e-08
3.980000	5326449.504682	1.687696e-08
3.985000	5334065.259757	1.605240e-08
3.990000	5341681.710048	9.412809e-09
3.995000	5349298.772032	3.374921e-09
4.000000	5356916.494791	8.107091e-09
4.005000	5364534.891210	7.177362e-09
4.010000	5372153.850568	7.936859e-09
4.015000	5379773.509447	9.348046e-09
4.020000	5387393.732696	-1.812494e-09
4.025000	5395014.591787	1.201638e-08
4.030000	5402636.021549	3.167099e-09
4.035000	5410258.096551	1.281137e-08
4.040000	5417880.734717	8.682711e-09
4.045000	5425504.045656	6.481914e-09
4.050000	5433127.859505	5.949654e-09
4.055000	5440752.243838	9.464353e-09
4.060000	5448377.241893	6.452827e-09
4.065000	5456002.809394	1.455136e-09
4.070000	5463628.943101	1.432355e-08
4.075000	5471255.632062	1.186748e-08
4.080000	5478882.857159	1.371586e-08